TITLE     = "Plot3D DataSet"
VARIABLES = "x"
"y"
"u"
"v"
ZONE T="LES dx0.177mm"
 I=451, J=129, K=1, ZONETYPE=Ordered
 DATAPACKING=POINT
 DT=(SINGLE SINGLE SINGLE SINGLE )
 0.000000000E+00 0.000000000E+00 4.571589050E+02 -6.909103598E-03
 1.769999944E-04 0.000000000E+00 4.665147705E+02 2.199532092E-02
 3.539999889E-04 0.000000000E+00 4.792826843E+02 5.914621428E-02
 5.310000270E-04 0.000000000E+00 4.974118042E+02 6.902387738E-02
 7.079999777E-04 0.000000000E+00 5.221530762E+02 -2.430678532E-02
 8.849999867E-04 0.000000000E+00 5.532496948E+02 -1.647401005E-01
 1.062000054E-03 0.000000000E+00 5.883198242E+02 -1.743738800E-01
 1.239000005E-03 0.000000000E+00 6.246856689E+02 -6.672325730E-02
 1.415999955E-03 0.000000000E+00 6.611005249E+02 3.702539206E-02
 1.593000023E-03 0.000000000E+00 6.971028442E+02 6.235616654E-02
 1.769999973E-03 0.000000000E+00 7.277614746E+02 6.211243942E-02
 1.947000041E-03 0.000000000E+00 7.465696411E+02 1.564072445E-02
 2.124000108E-03 0.000000000E+00 7.406491699E+02 -6.425353289E-01
 2.301000059E-03 0.000000000E+00 6.959993286E+02 -4.270993769E-01
 2.478000009E-03 0.000000000E+00 6.162838135E+02 -4.006220698E-01
 2.654999960E-03 0.000000000E+00 5.460311890E+02 -7.490203977E-01
 2.831999911E-03 0.000000000E+00 5.053128052E+02 -7.219803333E-01
 3.009000095E-03 0.000000000E+00 4.830993042E+02 -4.184652865E-01
 3.186000045E-03 0.000000000E+00 4.725237427E+02 -2.330742627E-01
 3.362999996E-03 0.000000000E+00 4.702594604E+02 -3.098559082E-01
 3.539999947E-03 0.000000000E+00 4.709619751E+02 -4.858631492E-01
 3.716999898E-03 0.000000000E+00 4.736614990E+02 -6.019049287E-01
 3.894000081E-03 0.000000000E+00 4.810056152E+02 -5.623703003E-01
 4.071000032E-03 0.000000000E+00 4.960169373E+02 -3.710128665E-01
 4.248000216E-03 0.000000000E+00 5.184792480E+02 -1.067731008E-01
 4.424999934E-03 0.000000000E+00 5.455827026E+02 1.632233709E-01
 4.602000117E-03 0.000000000E+00 5.746338501E+02 3.759848773E-01
 4.778999835E-03 0.000000000E+00 6.023956909E+02 4.357975423E-01
 4.956000019E-03 0.000000000E+00 6.262677002E+02 3.527561724E-01
 5.133000202E-03 0.000000000E+00 6.462786865E+02 2.034866065E-01
 5.309999920E-03 0.000000000E+00 6.603757935E+02 -3.690350428E-02
 5.487000104E-03 0.000000000E+00 6.665502319E+02 -3.767884970E-01
 5.663999822E-03 0.000000000E+00 6.649592896E+02 -7.724776268E-01
 5.841000006E-03 0.000000000E+00 6.552478027E+02 -1.147282004E+00
 6.018000189E-03 0.000000000E+00 6.354907227E+02 -1.386204123E+00
 6.194999907E-03 0.000000000E+00 6.057294922E+02 -1.399495363E+00
 6.372000091E-03 0.000000000E+00 5.686567993E+02 -1.216522098E+00
 6.548999809E-03 0.000000000E+00 5.313112793E+02 -9.341825247E-01
 6.725999992E-03 0.000000000E+00 5.035312805E+02 -6.963708997E-01
 6.903000176E-03 0.000000000E+00 4.897767334E+02 -5.599735975E-01
 7.079999894E-03 0.000000000E+00 4.869293823E+02 -4.732350707E-01
 7.257000078E-03 0.000000000E+00 4.904219055E+02 -4.085781574E-01
 7.433999795E-03 0.000000000E+00 4.984787903E+02 -3.670517802E-01
 7.610999979E-03 0.000000000E+00 5.105151978E+02 -3.252436817E-01
 7.788000163E-03 0.000000000E+00 5.258352661E+02 -2.753856480E-01
 7.965000346E-03 0.000000000E+00 5.436770630E+02 -2.383712232E-01
 8.142000064E-03 0.000000000E+00 5.629105225E+02 -2.200598419E-01
 8.318999782E-03 0.000000000E+00 5.820906982E+02 -2.163436413E-01
 8.496000431E-03 0.000000000E+00 5.999392090E+02 -2.247491777E-01
 8.673000149E-03 0.000000000E+00 6.152584229E+02 -2.582119703E-01
 8.849999867E-03 0.000000000E+00 6.264367676E+02 -3.481124043E-01
 9.026999585E-03 0.000000000E+00 6.321270142E+02 -5.225439072E-01
 9.204000235E-03 0.000000000E+00 6.321429443E+02 -7.884445190E-01
 9.380999953E-03 0.000000000E+00 6.264072266E+02 -1.134873152E+00
 9.557999671E-03 0.000000000E+00 6.140852051E+02 -1.517435193E+00
 9.735000320E-03 0.000000000E+00 5.948264160E+02 -1.833823562E+00
 9.912000038E-03 0.000000000E+00 5.701833496E+02 -1.970028043E+00
 1.008899976E-02 0.000000000E+00 5.444422607E+02 -1.882898808E+00
 1.026600040E-02 0.000000000E+00 5.235817261E+02 -1.642278075E+00
 1.044300012E-02 0.000000000E+00 5.114794617E+02 -1.383367300E+00
 1.061999984E-02 0.000000000E+00 5.076287537E+02 -1.183757424E+00
 1.079699956E-02 0.000000000E+00 5.094462891E+02 -1.032656074E+00
 1.097400021E-02 0.000000000E+00 5.153142090E+02 -9.104987383E-01
 1.115099993E-02 0.000000000E+00 5.246317139E+02 -8.118014932E-01
 1.132799964E-02 0.000000000E+00 5.367983398E+02 -7.265648246E-01
 1.150500029E-02 0.000000000E+00 5.509876099E+02 -6.472795010E-01
 1.168200001E-02 0.000000000E+00 5.661790161E+02 -5.823984146E-01
 1.185899973E-02 0.000000000E+00 5.811244507E+02 -5.565213561E-01
 1.203600038E-02 0.000000000E+00 5.943363647E+02 -6.012045741E-01
 1.221300010E-02 0.000000000E+00 6.042802124E+02 -7.401599288E-01
 1.238999981E-02 0.000000000E+00 6.099368286E+02 -9.795978665E-01
 1.256700046E-02 0.000000000E+00 6.111096191E+02 -1.313671112E+00
 1.274400018E-02 0.000000000E+00 6.078410645E+02 -1.727708578E+00
 1.292099990E-02 0.000000000E+00 5.998851929E+02 -2.175920963E+00
 1.309799962E-02 0.000000000E+00 5.871563721E+02 -2.560383558E+00
 1.327500027E-02 0.000000000E+00 5.705781250E+02 -2.770055771E+00
 1.345199998E-02 0.000000000E+00 5.526683960E+02 -2.755089998E+00
 1.362899970E-02 0.000000000E+00 5.371322021E+02 -2.554682255E+00
 1.380600035E-02 0.000000000E+00 5.269927979E+02 -2.258446217E+00
 1.398300007E-02 0.000000000E+00 5.229902344E+02 -1.946446180E+00
 1.415999979E-02 0.000000000E+00 5.241593018E+02 -1.654285669E+00
 1.433700044E-02 0.000000000E+00 5.293188477E+02 -1.396804690E+00
 1.451400016E-02 0.000000000E+00 5.375338135E+02 -1.184379578E+00
 1.469099987E-02 0.000000000E+00 5.478285522E+02 -1.025992036E+00
 1.486799959E-02 0.000000000E+00 5.590249023E+02 -9.482694864E-01
 1.504500024E-02 0.000000000E+00 5.698585205E+02 -9.739364386E-01
 1.522199996E-02 0.000000000E+00 5.791254883E+02 -1.108304381E+00
 1.539899968E-02 0.000000000E+00 5.858368530E+02 -1.345742702E+00
 1.557600033E-02 0.000000000E+00 5.893411865E+02 -1.653560638E+00
 1.575299911E-02 0.000000000E+00 5.893579102E+02 -2.005716801E+00
 1.593000069E-02 0.000000000E+00 5.858973999E+02 -2.382230997E+00
 1.610700041E-02 0.000000000E+00 5.791898804E+02 -2.761933804E+00
 1.628400013E-02 0.000000000E+00 5.698035278E+02 -3.099821806E+00
 1.646099985E-02 0.000000000E+00 5.588247070E+02 -3.297169924E+00
 1.663799956E-02 0.000000000E+00 5.478142700E+02 -3.312095404E+00
 1.681499928E-02 0.000000000E+00 5.385285034E+02 -3.165454388E+00
 1.699200086E-02 0.000000000E+00 5.322980957E+02 -2.887158871E+00
 1.716900058E-02 0.000000000E+00 5.296465454E+02 -2.575627089E+00
 1.734600030E-02 0.000000000E+00 5.302305298E+02 -2.245897770E+00
 1.752300002E-02 0.000000000E+00 5.331783447E+02 -1.935439825E+00
 1.769999973E-02 0.000000000E+00 5.375070190E+02 -1.725177646E+00
 1.787699945E-02 0.000000000E+00 5.421338501E+02 -1.631040573E+00
 1.805399917E-02 0.000000000E+00 5.461557617E+02 -1.699075818E+00
 1.823100075E-02 0.000000000E+00 5.488964844E+02 -1.905415416E+00
 1.840800047E-02 0.000000000E+00 5.498339233E+02 -2.189361095E+00
 1.858500019E-02 0.000000000E+00 5.486722412E+02 -2.548311710E+00
 1.876199991E-02 0.000000000E+00 5.453599854E+02 -2.924742937E+00
 1.893899962E-02 0.000000000E+00 5.401241455E+02 -3.215401173E+00
 1.911599934E-02 0.000000000E+00 5.335202026E+02 -3.404915571E+00
 1.929300092E-02 0.000000000E+00 5.263144531E+02 -3.492958069E+00
 1.947000064E-02 0.000000000E+00 5.191863403E+02 -3.498454571E+00
 1.964700036E-02 0.000000000E+00 5.127422485E+02 -3.407228708E+00
 1.982400008E-02 0.000000000E+00 5.075029907E+02 -3.218458176E+00
 2.000099979E-02 0.000000000E+00 5.037648926E+02 -3.031526804E+00
 2.017799951E-02 0.000000000E+00 5.014821777E+02 -2.920908928E+00
 2.035499923E-02 0.000000000E+00 5.003093262E+02 -2.938655376E+00
 2.053200081E-02 0.000000000E+00 4.997629089E+02 -3.056698561E+00
 2.070900053E-02 0.000000000E+00 4.993482971E+02 -3.161442041E+00
 2.088600025E-02 0.000000000E+00 4.986127625E+02 -3.224695444E+00
 2.106299996E-02 0.000000000E+00 4.971513672E+02 -3.248621464E+00
 2.123999968E-02 0.000000000E+00 4.947500916E+02 -3.215448618E+00
 2.141699940E-02 0.000000000E+00 4.914527588E+02 -3.149662256E+00
 2.159399912E-02 0.000000000E+00 4.873973999E+02 -3.109675884E+00
 2.177100070E-02 0.000000000E+00 4.827914124E+02 -3.109312773E+00
 2.194800042E-02 0.000000000E+00 4.778694458E+02 -3.095083952E+00
 2.212500013E-02 0.000000000E+00 4.728145447E+02 -3.047022820E+00
 2.230199985E-02 0.000000000E+00 4.678958435E+02 -2.937411070E+00
 2.247899957E-02 0.000000000E+00 4.632252502E+02 -2.783322811E+00
 2.265599929E-02 0.000000000E+00 4.589211426E+02 -2.707956076E+00
 2.283300087E-02 0.000000000E+00 4.551338196E+02 -2.714133501E+00
 2.301000059E-02 0.000000000E+00 4.516806641E+02 -2.742743254E+00
 2.318700030E-02 0.000000000E+00 4.483080444E+02 -2.871258497E+00
 2.336400002E-02 0.000000000E+00 4.450679321E+02 -3.010787725E+00
 2.354099974E-02 0.000000000E+00 4.419211731E+02 -3.079842806E+00
 2.371799946E-02 0.000000000E+00 4.386033630E+02 -3.114317179E+00
 2.389499918E-02 0.000000000E+00 4.350629272E+02 -3.203099489E+00
 2.407200076E-02 0.000000000E+00 4.310955200E+02 -3.313298225E+00
 2.424900047E-02 0.000000000E+00 4.267292480E+02 -3.344552755E+00
 2.442600019E-02 0.000000000E+00 4.221802673E+02 -3.391942263E+00
 2.460299991E-02 0.000000000E+00 4.177160950E+02 -3.326908350E+00
 2.477999963E-02 0.000000000E+00 4.131844788E+02 -3.333853245E+00
 2.495699935E-02 0.000000000E+00 4.086668701E+02 -3.455763340E+00
 2.513400093E-02 0.000000000E+00 4.044287415E+02 -3.481208086E+00
 2.531100065E-02 0.000000000E+00 4.003690186E+02 -3.518065453E+00
 2.548800036E-02 0.000000000E+00 3.964729309E+02 -3.596248388E+00
 2.566500008E-02 0.000000000E+00 3.924203796E+02 -3.790849924E+00
 2.584199980E-02 0.000000000E+00 3.884066772E+02 -3.970814705E+00
 2.601899952E-02 0.000000000E+00 3.845528870E+02 -4.071718693E+00
 2.619599923E-02 0.000000000E+00 3.806765747E+02 -4.074183464E+00
 2.637300082E-02 0.000000000E+00 3.768043213E+02 -3.825289965E+00
 2.655000053E-02 0.000000000E+00 3.729089966E+02 -3.390505791E+00
 2.672700025E-02 0.000000000E+00 3.690777588E+02 -2.873615980E+00
 2.690399997E-02 0.000000000E+00 3.650960999E+02 -2.328821659E+00
 2.708099969E-02 0.000000000E+00 3.608547668E+02 -1.777734518E+00
 2.725799941E-02 0.000000000E+00 3.563798523E+02 -1.217262745E+00
 2.743499912E-02 0.000000000E+00 3.518220215E+02 -6.592187881E-01
 2.761200070E-02 0.000000000E+00 3.473914795E+02 -1.734147370E-01
 2.778900042E-02 0.000000000E+00 3.430727539E+02 4.393276758E-03
 2.796600014E-02 0.000000000E+00 3.388217773E+02 -2.082635611E-01
 2.814299986E-02 0.000000000E+00 3.344650574E+02 -5.563495755E-01
 2.831999958E-02 0.000000000E+00 3.298475647E+02 -6.770176291E-01
 2.849699929E-02 0.000000000E+00 3.249393616E+02 -4.588674903E-01
 2.867400087E-02 0.000000000E+00 3.196941528E+02 -1.753554940E-01
 2.885100059E-02 0.000000000E+00 3.141234436E+02 -6.703400612E-02
 2.902800031E-02 0.000000000E+00 3.083539124E+02 2.648173645E-02
 2.920500003E-02 0.000000000E+00 3.024361572E+02 2.501165271E-01
 2.938199975E-02 0.000000000E+00 2.964151917E+02 4.844188094E-01
 2.955899946E-02 0.000000000E+00 2.903200989E+02 4.708042741E-01
 2.973599918E-02 0.000000000E+00 2.841401978E+02 1.273156554E-01
 2.991300076E-02 0.000000000E+00 2.778560486E+02 -4.822455049E-01
 3.009000048E-02 0.000000000E+00 2.714480591E+02 -1.187268257E+00
 3.026700020E-02 0.000000000E+00 2.648929749E+02 -1.608904839E+00
 3.044399992E-02 0.000000000E+00 2.580644226E+02 -1.592778802E+00
 3.062099963E-02 0.000000000E+00 2.507114716E+02 -1.268422246E+00
 3.079799935E-02 0.000000000E+00 2.426317291E+02 -9.716923833E-01
 3.097499907E-02 0.000000000E+00 2.339345093E+02 -9.118568897E-01
 3.115200065E-02 0.000000000E+00 2.248724365E+02 -7.163208127E-01
 3.132899851E-02 0.000000000E+00 2.154340515E+02 -5.169674754E-01
 3.150599822E-02 0.000000000E+00 2.052910614E+02 -4.902564585E-01
 3.168300167E-02 0.000000000E+00 1.943131409E+02 -2.862106264E-01
 3.186000139E-02 0.000000000E+00 1.824837341E+02 3.993366286E-02
 3.203700110E-02 0.000000000E+00 1.698347473E+02 -2.364483029E-01
 3.221400082E-02 0.000000000E+00 1.574093323E+02 -1.494466782E+00
 3.239100054E-02 0.000000000E+00 1.456787109E+02 -2.908646822E+00
 3.256800026E-02 0.000000000E+00 1.336041260E+02 -3.753032446E+00
 3.274499997E-02 0.000000000E+00 1.208685532E+02 -4.403086185E+00
 3.292199969E-02 0.000000000E+00 1.078376160E+02 -5.360167027E+00
 3.309899941E-02 0.000000000E+00 9.456099701E+01 -6.406924725E+00
 3.327599913E-02 0.000000000E+00 8.132112122E+01 -6.602839947E+00
 3.345299885E-02 0.000000000E+00 6.824082184E+01 -5.975476742E+00
 3.362999856E-02 0.000000000E+00 5.530679321E+01 -5.505236626E+00
 3.380699828E-02 0.000000000E+00 4.214437866E+01 -5.298887730E+00
 3.398400173E-02 0.000000000E+00 2.900233650E+01 -5.020283222E+00
 3.416100144E-02 0.000000000E+00 1.640620422E+01 -4.597872257E+00
 3.433800116E-02 0.000000000E+00 4.126558781E+00 -3.872551918E+00
 3.451500088E-02 0.000000000E+00 -7.479875565E+00 -2.541867971E+00
 3.469200060E-02 0.000000000E+00 -1.840131378E+01 -6.451234221E-01
 3.486900032E-02 0.000000000E+00 -2.884749985E+01 1.219037294E+00
 3.504600003E-02 0.000000000E+00 -3.932140732E+01 2.632455349E+00
 3.522299975E-02 0.000000000E+00 -5.073046875E+01 2.927827597E+00
 3.539999947E-02 0.000000000E+00 -6.238996506E+01 1.797000885E+00
 3.557699919E-02 0.000000000E+00 -7.417863464E+01 1.583815962E-01
 3.575399891E-02 0.000000000E+00 -8.541344452E+01 -1.478413820E+00
 3.593099862E-02 0.000000000E+00 -9.547782898E+01 -2.891483307E+00
 3.610799834E-02 0.000000000E+00 -1.047378922E+02 -4.265415668E+00
 3.628500178E-02 0.000000000E+00 -1.132406464E+02 -4.943096638E+00
 3.646200150E-02 0.000000000E+00 -1.211853256E+02 -4.330953598E+00
 3.663900122E-02 0.000000000E+00 -1.285590057E+02 -3.430595160E+00
 3.681600094E-02 0.000000000E+00 -1.347928467E+02 -3.080486774E+00
 3.699300066E-02 0.000000000E+00 -1.399887390E+02 -3.216326237E+00
 3.717000037E-02 0.000000000E+00 -1.443826447E+02 -3.723297119E+00
 3.734700009E-02 0.000000000E+00 -1.484632721E+02 -4.300320625E+00
 3.752399981E-02 0.000000000E+00 -1.522719269E+02 -4.514244556E+00
 3.770099953E-02 0.000000000E+00 -1.556894531E+02 -4.899419785E+00
 3.787799925E-02 0.000000000E+00 -1.590392914E+02 -5.628272533E+00
 3.805499896E-02 0.000000000E+00 -1.621666718E+02 -6.238026142E+00
 3.823199868E-02 0.000000000E+00 -1.648768463E+02 -6.928426266E+00
 3.840899840E-02 0.000000000E+00 -1.668948212E+02 -7.729905128E+00
 3.858600184E-02 0.000000000E+00 -1.681305389E+02 -8.272703171E+00
 3.876300156E-02 0.000000000E+00 -1.688998871E+02 -8.475387573E+00
 3.894000128E-02 0.000000000E+00 -1.694055176E+02 -8.454748154E+00
 3.911700100E-02 0.000000000E+00 -1.696576538E+02 -8.359780312E+00
 3.929400072E-02 0.000000000E+00 -1.696968994E+02 -8.197896957E+00
 3.947100043E-02 0.000000000E+00 -1.695874329E+02 -7.986888885E+00
 3.964800015E-02 0.000000000E+00 -1.692608490E+02 -7.743952274E+00
 3.982499987E-02 0.000000000E+00 -1.686335297E+02 -7.433419704E+00
 4.000199959E-02 0.000000000E+00 -1.677289734E+02 -7.149403095E+00
 4.017899930E-02 0.000000000E+00 -1.665834656E+02 -7.085871220E+00
 4.035599902E-02 0.000000000E+00 -1.653621368E+02 -7.282274246E+00
 4.053299874E-02 0.000000000E+00 -1.640964966E+02 -7.572378635E+00
 4.070999846E-02 0.000000000E+00 -1.626742401E+02 -7.635299206E+00
 4.088699818E-02 0.000000000E+00 -1.610097809E+02 -7.424977779E+00
 4.106400162E-02 0.000000000E+00 -1.592270813E+02 -7.087663174E+00
 4.124100134E-02 0.000000000E+00 -1.574083405E+02 -6.697739601E+00
 4.141800106E-02 0.000000000E+00 -1.553386841E+02 -6.331999302E+00
 4.159500077E-02 0.000000000E+00 -1.529457245E+02 -5.972053528E+00
 4.177200049E-02 0.000000000E+00 -1.503810577E+02 -5.552930355E+00
 4.194900021E-02 0.000000000E+00 -1.476905823E+02 -5.179885387E+00
 4.212599993E-02 0.000000000E+00 -1.450361633E+02 -4.963932514E+00
 4.230299965E-02 0.000000000E+00 -1.424715576E+02 -4.614662647E+00
 4.247999936E-02 0.000000000E+00 -1.399374695E+02 -3.952861309E+00
 4.265699908E-02 0.000000000E+00 -1.375589905E+02 -3.146114349E+00
 4.283399880E-02 0.000000000E+00 -1.354050751E+02 -2.518682003E+00
 4.301099852E-02 0.000000000E+00 -1.334810333E+02 -2.128848076E+00
 4.318799824E-02 0.000000000E+00 -1.316245880E+02 -1.771873593E+00
 4.336500168E-02 0.000000000E+00 -1.297575684E+02 -1.477069020E+00
 4.354200140E-02 0.000000000E+00 -1.276097183E+02 -1.327086926E+00
 4.371900111E-02 0.000000000E+00 -1.251833267E+02 -1.684647322E+00
 4.389600083E-02 0.000000000E+00 -1.228915253E+02 -2.584688663E+00
 4.407300055E-02 0.000000000E+00 -1.206228180E+02 -3.374192476E+00
 4.425000027E-02 0.000000000E+00 -1.183557739E+02 -3.750051737E+00
 4.442699999E-02 0.000000000E+00 -1.160659943E+02 -3.842940807E+00
 4.460399970E-02 0.000000000E+00 -1.138425751E+02 -4.023046494E+00
 4.478099942E-02 0.000000000E+00 -1.118363495E+02 -4.622820377E+00
 4.495799914E-02 0.000000000E+00 -1.098193283E+02 -5.389535427E+00
 4.513499886E-02 0.000000000E+00 -1.077710724E+02 -6.205224514E+00
 4.531199858E-02 0.000000000E+00 -1.054352112E+02 -6.908392429E+00
 4.548899829E-02 0.000000000E+00 -1.028867722E+02 -7.146691322E+00
 4.566600174E-02 0.000000000E+00 -1.004728470E+02 -7.011153698E+00
 4.584300146E-02 0.000000000E+00 -9.789830017E+01 -6.715418816E+00
 4.602000117E-02 0.000000000E+00 -9.484886932E+01 -6.296965122E+00
 4.619700089E-02 0.000000000E+00 -9.168572998E+01 -6.078763485E+00
 4.637400061E-02 0.000000000E+00 -8.875421906E+01 -6.256264687E+00
 4.655100033E-02 0.000000000E+00 -8.566645050E+01 -6.759397030E+00
 4.672800004E-02 0.000000000E+00 -8.214072418E+01 -7.693060875E+00
 4.690499976E-02 0.000000000E+00 -7.851966858E+01 -8.477187157E+00
 4.708199948E-02 0.000000000E+00 -7.520954132E+01 -8.644986153E+00
 4.725899920E-02 0.000000000E+00 -7.237526703E+01 -8.249349594E+00
 4.743599892E-02 0.000000000E+00 -7.001229095E+01 -7.741337299E+00
 4.761299863E-02 0.000000000E+00 -6.791397858E+01 -7.554939270E+00
 4.778999835E-02 0.000000000E+00 -6.557387543E+01 -7.343730450E+00
 4.796700180E-02 0.000000000E+00 -6.301279068E+01 -6.481194973E+00
 4.814400151E-02 0.000000000E+00 -6.048752594E+01 -5.083396435E+00
 4.832100123E-02 0.000000000E+00 -5.805691147E+01 -4.002694130E+00
 4.849800095E-02 0.000000000E+00 -5.570005035E+01 -3.658201933E+00
 4.867500067E-02 0.000000000E+00 -5.319395447E+01 -3.689925432E+00
 4.885200039E-02 0.000000000E+00 -5.046018982E+01 -3.874215126E+00
 4.902900010E-02 0.000000000E+00 -4.751209259E+01 -4.335964203E+00
 4.920599982E-02 0.000000000E+00 -4.458834076E+01 -4.884638786E+00
 4.938299954E-02 0.000000000E+00 -4.180450439E+01 -5.107936382E+00
 4.955999926E-02 0.000000000E+00 -3.923307800E+01 -4.598481655E+00
 4.973699898E-02 0.000000000E+00 -3.699536133E+01 -3.644392490E+00
 4.991399869E-02 0.000000000E+00 -3.505086517E+01 -2.990657330E+00
 5.009099841E-02 0.000000000E+00 -3.320909882E+01 -2.837689638E+00
 5.026800185E-02 0.000000000E+00 -3.116489220E+01 -3.296425343E+00
 5.044500157E-02 0.000000000E+00 -2.867285728E+01 -4.335008621E+00
 5.062200129E-02 0.000000000E+00 -2.569432259E+01 -5.353182793E+00
 5.079900101E-02 0.000000000E+00 -2.220820236E+01 -6.048794746E+00
 5.097600073E-02 0.000000000E+00 -1.829554367E+01 -6.481922150E+00
 5.115300044E-02 0.000000000E+00 -1.430794907E+01 -6.351722717E+00
 5.133000016E-02 0.000000000E+00 -1.041472054E+01 -5.547740936E+00
 5.150699988E-02 0.000000000E+00 -6.571711063E+00 -4.397927284E+00
 5.168399960E-02 0.000000000E+00 -2.863807917E+00 -2.994619131E+00
 5.186099932E-02 0.000000000E+00 5.789039731E-01 -1.591856480E+00
 5.203799903E-02 0.000000000E+00 3.537681580E+00 -6.780055761E-01
 5.221499875E-02 0.000000000E+00 5.796585083E+00 -4.261142910E-01
 5.239199847E-02 0.000000000E+00 7.324193954E+00 -4.660902917E-01
 5.256899819E-02 0.000000000E+00 8.446893692E+00 -1.696008742E-01
 5.274600163E-02 0.000000000E+00 9.760260582E+00 5.200905204E-01
 5.292300135E-02 0.000000000E+00 1.191049004E+01 1.524803162E+00
 5.310000107E-02 0.000000000E+00 1.490409470E+01 2.268535137E+00
 5.327700078E-02 0.000000000E+00 1.840711212E+01 2.437870502E+00
 5.345400050E-02 0.000000000E+00 2.212539673E+01 2.487893343E+00
 5.363100022E-02 0.000000000E+00 2.555002213E+01 2.086726665E+00
 5.380799994E-02 0.000000000E+00 2.841508484E+01 1.166315079E+00
 5.398499966E-02 0.000000000E+00 3.056180191E+01 3.634522483E-02
 5.416199937E-02 0.000000000E+00 3.208589935E+01 -1.080887675E+00
 5.433899909E-02 0.000000000E+00 3.355197906E+01 -1.450541854E+00
 5.451599881E-02 0.000000000E+00 3.522011566E+01 -1.038720965E+00
 5.469299853E-02 0.000000000E+00 3.707756424E+01 -3.885000348E-01
 5.486999825E-02 0.000000000E+00 3.911479950E+01 3.984870911E-01
 5.504700169E-02 0.000000000E+00 4.111036301E+01 1.057372451E+00
 5.522400141E-02 0.000000000E+00 4.300386047E+01 1.692768574E+00
 5.540100113E-02 0.000000000E+00 4.481584167E+01 1.942961216E+00
 5.557800084E-02 0.000000000E+00 4.659977341E+01 1.494119167E+00
 5.575500056E-02 0.000000000E+00 4.877303696E+01 1.022506237E+00
 5.593200028E-02 0.000000000E+00 5.138360596E+01 2.880296111E-01
 5.610900000E-02 0.000000000E+00 5.438114929E+01 -7.647187710E-01
 5.628599972E-02 0.000000000E+00 5.771196365E+01 -1.622794390E+00
 5.646299943E-02 0.000000000E+00 6.136529160E+01 -2.057206392E+00
 5.663999915E-02 0.000000000E+00 6.518611145E+01 -1.844386101E+00
 5.681699887E-02 0.000000000E+00 6.921010590E+01 -1.088120818E+00
 5.699399859E-02 0.000000000E+00 7.338424683E+01 -1.672898680E-01
 5.717099831E-02 0.000000000E+00 7.746128082E+01 1.857084632E-01
 5.734800175E-02 0.000000000E+00 8.107570648E+01 6.250561774E-02
 5.752500147E-02 0.000000000E+00 8.442173004E+01 -1.953707822E-02
 5.770200118E-02 0.000000000E+00 8.776889801E+01 -3.915390745E-02
 5.787900090E-02 0.000000000E+00 9.148213196E+01 -4.063366726E-02
 5.805600062E-02 0.000000000E+00 9.538680267E+01 -3.803049922E-01
 5.823300034E-02 0.000000000E+00 9.870672607E+01 -1.290226817E+00
 5.841000006E-02 0.000000000E+00 1.019835663E+02 -2.449106455E+00
 5.858699977E-02 0.000000000E+00 1.051534424E+02 -3.372792006E+00
 5.876399949E-02 0.000000000E+00 1.078680496E+02 -3.905276775E+00
 5.894099921E-02 0.000000000E+00 1.102173843E+02 -3.968761683E+00
 5.911799893E-02 0.000000000E+00 1.124364700E+02 -3.816651821E+00
 5.929499865E-02 0.000000000E+00 1.147992096E+02 -3.790965796E+00
 5.947199836E-02 0.000000000E+00 1.172967758E+02 -3.828991413E+00
 5.964900181E-02 0.000000000E+00 1.198944321E+02 -3.927985191E+00
 5.982600152E-02 0.000000000E+00 1.225607224E+02 -4.045963764E+00
 6.000300124E-02 0.000000000E+00 1.252151489E+02 -4.065237522E+00
 6.018000096E-02 0.000000000E+00 1.277135162E+02 -3.977010727E+00
 6.035700068E-02 0.000000000E+00 1.301150970E+02 -3.872841835E+00
 6.053400040E-02 0.000000000E+00 1.325760345E+02 -3.829223871E+00
 6.071100011E-02 0.000000000E+00 1.350632172E+02 -3.904934168E+00
 6.088799983E-02 0.000000000E+00 1.374809265E+02 -4.048277855E+00
 6.106499955E-02 0.000000000E+00 1.397423859E+02 -4.053661346E+00
 6.124199927E-02 0.000000000E+00 1.419133606E+02 -3.820955038E+00
 6.141899899E-02 0.000000000E+00 1.441630707E+02 -3.444235802E+00
 6.159599870E-02 0.000000000E+00 1.465018463E+02 -3.107200384E+00
 6.177299842E-02 0.000000000E+00 1.488436432E+02 -2.953510284E+00
 6.194999814E-02 0.000000000E+00 1.511599121E+02 -3.018182278E+00
 6.212700158E-02 0.000000000E+00 1.534993591E+02 -3.333802462E+00
 6.230400130E-02 0.000000000E+00 1.558838196E+02 -3.864258289E+00
 6.248100102E-02 0.000000000E+00 1.582539368E+02 -4.427442551E+00
 6.265799701E-02 0.000000000E+00 1.605092163E+02 -4.870512962E+00
 6.283500046E-02 0.000000000E+00 1.625889587E+02 -5.190046310E+00
 6.301199645E-02 0.000000000E+00 1.645745544E+02 -5.478618145E+00
 6.318899989E-02 0.000000000E+00 1.666285706E+02 -5.783705235E+00
 6.336600333E-02 0.000000000E+00 1.688077393E+02 -6.013444424E+00
 6.354299933E-02 0.000000000E+00 1.710436096E+02 -6.107268810E+00
 6.372000277E-02 0.000000000E+00 1.732293854E+02 -6.169400692E+00
 6.389699876E-02 0.000000000E+00 1.753081970E+02 -6.234269619E+00
 6.407400221E-02 0.000000000E+00 1.773512268E+02 -6.185270786E+00
 6.425099820E-02 0.000000000E+00 1.793972168E+02 -5.988878250E+00
 6.442800164E-02 0.000000000E+00 1.813805542E+02 -5.724682331E+00
 6.460499763E-02 0.000000000E+00 1.832717743E+02 -5.442583561E+00
 6.478200108E-02 0.000000000E+00 1.850344391E+02 -5.165741920E+00
 6.495899707E-02 0.000000000E+00 1.867568665E+02 -4.956276894E+00
 6.513600051E-02 0.000000000E+00 1.886272736E+02 -4.870337009E+00
 6.531299651E-02 0.000000000E+00 1.906677551E+02 -4.983946323E+00
 6.548999995E-02 0.000000000E+00 1.928184052E+02 -5.261384487E+00
 6.566700339E-02 0.000000000E+00 1.950233154E+02 -5.565473080E+00
 6.584399939E-02 0.000000000E+00 1.972658844E+02 -5.789674759E+00
 6.602100283E-02 0.000000000E+00 1.995560150E+02 -5.891382694E+00
 6.619799882E-02 0.000000000E+00 2.018880768E+02 -5.900634289E+00
 6.637500226E-02 0.000000000E+00 2.042068329E+02 -5.812914371E+00
 6.655199826E-02 0.000000000E+00 2.064988861E+02 -5.717592239E+00
 6.672900170E-02 0.000000000E+00 2.087626038E+02 -5.734705448E+00
 6.690599769E-02 0.000000000E+00 2.110273743E+02 -5.859462738E+00
 6.708300114E-02 0.000000000E+00 2.133856201E+02 -6.001979828E+00
 6.725999713E-02 0.000000000E+00 2.158772125E+02 -6.133137226E+00
 6.743700057E-02 0.000000000E+00 2.184461517E+02 -6.245347977E+00
 6.761399657E-02 0.000000000E+00 2.209572601E+02 -6.328464508E+00
 6.779100001E-02 0.000000000E+00 2.233213348E+02 -6.369792461E+00
 6.796800345E-02 0.000000000E+00 2.255459442E+02 -6.361629009E+00
 6.814499944E-02 0.000000000E+00 2.276928711E+02 -6.341961384E+00
 6.832200289E-02 0.000000000E+00 2.298289185E+02 -6.206326008E+00
 6.849899888E-02 0.000000000E+00 2.320278625E+02 -5.994752884E+00
 6.867600232E-02 0.000000000E+00 2.342695770E+02 -5.706714630E+00
 6.885299832E-02 0.000000000E+00 2.365377350E+02 -5.386157036E+00
 6.903000176E-02 0.000000000E+00 2.387886047E+02 -5.109836578E+00
 6.920699775E-02 0.000000000E+00 2.410020752E+02 -4.927864552E+00
 6.938400120E-02 0.000000000E+00 2.431432495E+02 -4.847324848E+00
 6.956099719E-02 0.000000000E+00 2.451408386E+02 -4.817328930E+00
 6.973800063E-02 0.000000000E+00 2.470372772E+02 -4.848807812E+00
 6.991499662E-02 0.000000000E+00 2.488256226E+02 -4.789775372E+00
 7.009200007E-02 0.000000000E+00 2.505806274E+02 -4.742173195E+00
 7.026900351E-02 0.000000000E+00 2.524686432E+02 -4.730819225E+00
 7.044599950E-02 0.000000000E+00 2.545137939E+02 -4.748912334E+00
 7.062300295E-02 0.000000000E+00 2.566527405E+02 -4.764110088E+00
 7.079999894E-02 0.000000000E+00 2.587988281E+02 -4.790186882E+00
 7.097700238E-02 0.000000000E+00 2.608944702E+02 -4.833708763E+00
 7.115399837E-02 0.000000000E+00 2.629306335E+02 -4.902579784E+00
 7.133100182E-02 0.000000000E+00 2.649102173E+02 -4.978517056E+00
 7.150799781E-02 0.000000000E+00 2.668475952E+02 -5.017956734E+00
 7.168500125E-02 0.000000000E+00 2.687583313E+02 -4.982053757E+00
 7.186199725E-02 0.000000000E+00 2.706392517E+02 -4.849023819E+00
 7.203900069E-02 0.000000000E+00 2.724861450E+02 -4.619415760E+00
 7.221599668E-02 0.000000000E+00 2.743205261E+02 -4.331212997E+00
 7.239300013E-02 0.000000000E+00 2.761429443E+02 -4.025484085E+00
 7.257000357E-02 0.000000000E+00 2.779573059E+02 -3.720579147E+00
 7.274699956E-02 0.000000000E+00 2.797431030E+02 -3.421219587E+00
 7.292400301E-02 0.000000000E+00 2.815177917E+02 -3.130062580E+00
 7.310099900E-02 0.000000000E+00 2.832695007E+02 -2.841951847E+00
 7.327800244E-02 0.000000000E+00 2.849620056E+02 -2.548208475E+00
 7.345499843E-02 0.000000000E+00 2.865789185E+02 -2.310189486E+00
 7.363200188E-02 0.000000000E+00 2.882765198E+02 -2.093694448E+00
 7.380899787E-02 0.000000000E+00 2.901026306E+02 -1.891176224E+00
 7.398600131E-02 0.000000000E+00 2.919430542E+02 -1.703060865E+00
 7.416299731E-02 0.000000000E+00 2.937510071E+02 -1.544522285E+00
 7.434000075E-02 0.000000000E+00 2.954638062E+02 -1.374730229E+00
 7.451699674E-02 0.000000000E+00 2.971870422E+02 -1.112441063E+00
 7.469400018E-02 0.000000000E+00 2.990341187E+02 -8.531551957E-01
 7.487100363E-02 0.000000000E+00 3.009464722E+02 -7.130542397E-01
 7.504799962E-02 0.000000000E+00 3.028653564E+02 -6.987197399E-01
 7.522500306E-02 0.000000000E+00 3.047710571E+02 -7.550953627E-01
 7.540199906E-02 0.000000000E+00 3.066516113E+02 -8.240183592E-01
 7.557900250E-02 0.000000000E+00 3.085182800E+02 -8.785477281E-01
 7.575599849E-02 0.000000000E+00 3.103585205E+02 -8.824398518E-01
 7.593300194E-02 0.000000000E+00 3.121801453E+02 -8.025219440E-01
 7.610999793E-02 0.000000000E+00 3.140138550E+02 -7.033251524E-01
 7.628700137E-02 0.000000000E+00 3.158030090E+02 -6.155031919E-01
 7.646399736E-02 0.000000000E+00 3.174966125E+02 -4.653559923E-01
 7.664100081E-02 0.000000000E+00 3.191369019E+02 -2.729949057E-01
 7.681799680E-02 0.000000000E+00 3.207679443E+02 -9.613604099E-02
 7.699500024E-02 0.000000000E+00 3.224090271E+02 8.171346039E-02
 7.717200369E-02 0.000000000E+00 3.240551758E+02 2.437085509E-01
 7.734899968E-02 0.000000000E+00 3.256955566E+02 3.582660556E-01
 7.752600312E-02 0.000000000E+00 3.273360596E+02 4.533164799E-01
 7.770299911E-02 0.000000000E+00 3.289887390E+02 5.579701662E-01
 7.788000256E-02 0.000000000E+00 3.306460571E+02 6.456450820E-01
 7.805699855E-02 0.000000000E+00 3.322701721E+02 7.131297588E-01
 7.823400199E-02 0.000000000E+00 3.338518982E+02 7.685976028E-01
 7.841099799E-02 0.000000000E+00 3.354468079E+02 7.757532001E-01
 7.858800143E-02 0.000000000E+00 3.370747070E+02 7.623883486E-01
 7.876499742E-02 0.000000000E+00 3.387005005E+02 7.735478878E-01
 7.894200087E-02 0.000000000E+00 3.402721863E+02 7.815831900E-01
 7.911899686E-02 0.000000000E+00 3.418435059E+02 7.584811449E-01
 7.929600030E-02 0.000000000E+00 3.435025330E+02 7.079659104E-01
 7.947299629E-02 0.000000000E+00 3.451899719E+02 6.442731023E-01
 7.964999974E-02 0.000000000E+00 3.468682861E+02 5.844478607E-01