TITLE     = "Plot3D DataSet"
VARIABLES = "x"
"y"
"u"
"v"
ZONE T="LES dx0.25mm"
 I=321, J=91, K=1, ZONETYPE=Ordered
 DATAPACKING=POINT
 DT=(SINGLE SINGLE SINGLE SINGLE )
 0.000000000E+00 0.000000000E+00 4.574780273E+02 -2.402733453E-02
 2.500000119E-04 0.000000000E+00 4.718935547E+02 -3.124641068E-02
 5.000000237E-04 0.000000000E+00 4.948895264E+02 8.802090585E-02
 7.500000065E-04 0.000000000E+00 5.307606812E+02 1.664572805E-01
 1.000000047E-03 0.000000000E+00 5.772296143E+02 1.117762625E-01
 1.249999972E-03 0.000000000E+00 6.288527832E+02 -6.412936747E-02
 1.500000013E-03 0.000000000E+00 6.805573120E+02 -2.677803338E-01
 1.750000054E-03 0.000000000E+00 7.184709473E+02 -1.546807121E-02
 2.000000095E-03 0.000000000E+00 7.190290527E+02 1.201184392E+00
 2.249999903E-03 0.000000000E+00 6.721470337E+02 2.896520138E+00
 2.499999944E-03 0.000000000E+00 5.870908203E+02 1.839736342E+00
 2.749999985E-03 0.000000000E+00 5.194336548E+02 1.502189338E-01
 3.000000026E-03 0.000000000E+00 4.847728271E+02 -1.148411632E-01
 3.250000067E-03 0.000000000E+00 4.721753235E+02 5.490123853E-02
 3.500000108E-03 0.000000000E+00 4.717055054E+02 2.271791995E-01
 3.749999916E-03 0.000000000E+00 4.826018982E+02 1.928158253E-01
 4.000000190E-03 0.000000000E+00 5.077501221E+02 -6.675475091E-02
 4.250000231E-03 0.000000000E+00 5.416951294E+02 -4.516244531E-01
 4.499999806E-03 0.000000000E+00 5.773736572E+02 -6.178833246E-01
 4.749999847E-03 0.000000000E+00 6.089821777E+02 -5.833883286E-01
 4.999999888E-03 0.000000000E+00 6.303282471E+02 -3.775587082E-01
 5.249999929E-03 0.000000000E+00 6.398450928E+02 -9.111888707E-02
 5.499999970E-03 0.000000000E+00 6.379149780E+02 2.796318531E-01
 5.750000011E-03 0.000000000E+00 6.245623169E+02 6.545853615E-01
 6.000000052E-03 0.000000000E+00 5.989822998E+02 7.121779323E-01
 6.250000093E-03 0.000000000E+00 5.635351562E+02 4.551475644E-01
 6.500000134E-03 0.000000000E+00 5.290278931E+02 1.987614185E-01
 6.750000175E-03 0.000000000E+00 5.085693359E+02 2.854746580E-02
 7.000000216E-03 0.000000000E+00 5.044870605E+02 -1.059015915E-01
 7.249999791E-03 0.000000000E+00 5.117904358E+02 -1.907110512E-01
 7.499999832E-03 0.000000000E+00 5.265371704E+02 -2.764201164E-01
 7.749999873E-03 0.000000000E+00 5.457099609E+02 -4.250431061E-01
 8.000000380E-03 0.000000000E+00 5.661962891E+02 -5.602763891E-01
 8.249999955E-03 0.000000000E+00 5.847716675E+02 -6.060311198E-01
 8.500000462E-03 0.000000000E+00 5.981232300E+02 -5.454739332E-01
 8.750000037E-03 0.000000000E+00 6.042087402E+02 -3.875305653E-01
 8.999999613E-03 0.000000000E+00 6.030396118E+02 -1.245386153E-01
 9.250000119E-03 0.000000000E+00 5.945743408E+02 1.742330045E-01
 9.499999695E-03 0.000000000E+00 5.785476685E+02 3.590557873E-01
 9.750000201E-03 0.000000000E+00 5.569362793E+02 3.349238634E-01
 9.999999776E-03 0.000000000E+00 5.366020508E+02 1.045066416E-01
 1.025000028E-02 0.000000000E+00 5.260357056E+02 -1.717879474E-01
 1.049999986E-02 0.000000000E+00 5.249893799E+02 -3.903583884E-01
 1.075000037E-02 0.000000000E+00 5.301844482E+02 -5.488708019E-01
 1.099999994E-02 0.000000000E+00 5.401292725E+02 -6.628887653E-01
 1.125000045E-02 0.000000000E+00 5.532545776E+02 -7.274481058E-01
 1.150000002E-02 0.000000000E+00 5.669478149E+02 -7.315123081E-01
 1.174999960E-02 0.000000000E+00 5.780012817E+02 -6.732903123E-01
 1.200000010E-02 0.000000000E+00 5.842283936E+02 -5.637175441E-01
 1.224999968E-02 0.000000000E+00 5.852493286E+02 -4.124601781E-01
 1.250000019E-02 0.000000000E+00 5.812305298E+02 -2.320186496E-01
 1.274999976E-02 0.000000000E+00 5.723540039E+02 -6.571273506E-02
 1.300000027E-02 0.000000000E+00 5.599555664E+02 2.606604621E-02
 1.324999984E-02 0.000000000E+00 5.476774902E+02 1.528581418E-02
 1.350000035E-02 0.000000000E+00 5.396021729E+02 -8.093350381E-02
 1.374999993E-02 0.000000000E+00 5.370852661E+02 -2.181010544E-01
 1.400000043E-02 0.000000000E+00 5.393081665E+02 -3.409412801E-01
 1.425000001E-02 0.000000000E+00 5.452009277E+02 -4.039963782E-01
 1.449999958E-02 0.000000000E+00 5.535234985E+02 -3.967397213E-01
 1.475000009E-02 0.000000000E+00 5.622443848E+02 -3.418635726E-01
 1.499999966E-02 0.000000000E+00 5.690369873E+02 -2.682045996E-01
 1.525000017E-02 0.000000000E+00 5.725217285E+02 -1.845060289E-01
 1.549999975E-02 0.000000000E+00 5.723674927E+02 -7.060018182E-02
 1.575000025E-02 0.000000000E+00 5.686815186E+02 8.084770292E-02
 1.600000076E-02 0.000000000E+00 5.621232300E+02 2.254193276E-01
 1.624999940E-02 0.000000000E+00 5.543480225E+02 3.098980784E-01
 1.649999991E-02 0.000000000E+00 5.477097778E+02 3.128908575E-01
 1.675000042E-02 0.000000000E+00 5.440034790E+02 2.370682061E-01
 1.700000092E-02 0.000000000E+00 5.437299805E+02 1.118291989E-01
 1.724999957E-02 0.000000000E+00 5.464252319E+02 -5.918531213E-03
 1.750000007E-02 0.000000000E+00 5.510751953E+02 -5.342755467E-02
 1.775000058E-02 0.000000000E+00 5.562598267E+02 -4.421931691E-03
 1.799999923E-02 0.000000000E+00 5.604509277E+02 1.231516451E-01
 1.824999973E-02 0.000000000E+00 5.625552979E+02 2.977641523E-01
 1.850000024E-02 0.000000000E+00 5.621232910E+02 4.885991514E-01
 1.875000075E-02 0.000000000E+00 5.592896729E+02 6.519687176E-01
 1.899999939E-02 0.000000000E+00 5.547849731E+02 7.408611774E-01
 1.924999990E-02 0.000000000E+00 5.498064575E+02 7.113724947E-01
 1.950000040E-02 0.000000000E+00 5.456331787E+02 5.757454038E-01
 1.975000091E-02 0.000000000E+00 5.430994873E+02 3.869207799E-01
 1.999999955E-02 0.000000000E+00 5.424014893E+02 1.946533471E-01
 2.025000006E-02 0.000000000E+00 5.432407227E+02 9.307094663E-02
 2.050000057E-02 0.000000000E+00 5.448674316E+02 1.123069227E-01
 2.074999921E-02 0.000000000E+00 5.462503052E+02 1.901656985E-01
 2.099999972E-02 0.000000000E+00 5.465264893E+02 2.809580564E-01
 2.125000022E-02 0.000000000E+00 5.453215942E+02 3.189948499E-01
 2.150000073E-02 0.000000000E+00 5.426666870E+02 2.834226489E-01
 2.174999937E-02 0.000000000E+00 5.389143677E+02 1.892318577E-01
 2.199999988E-02 0.000000000E+00 5.346531372E+02 5.809541419E-02
 2.225000039E-02 0.000000000E+00 5.305338135E+02 -7.735317945E-02
 2.250000089E-02 0.000000000E+00 5.270227661E+02 -2.205272913E-01
 2.274999954E-02 0.000000000E+00 5.242755127E+02 -3.627332151E-01
 2.300000004E-02 0.000000000E+00 5.220805664E+02 -4.724674523E-01
 2.325000055E-02 0.000000000E+00 5.199816284E+02 -5.873688459E-01
 2.349999920E-02 0.000000000E+00 5.176628418E+02 -7.587128282E-01
 2.374999970E-02 0.000000000E+00 5.146098022E+02 -9.510774016E-01
 2.400000021E-02 0.000000000E+00 5.105990906E+02 -1.068528891E+00
 2.425000072E-02 0.000000000E+00 5.057946167E+02 -1.059317708E+00
 2.449999936E-02 0.000000000E+00 5.006910095E+02 -1.031839967E+00
 2.474999987E-02 0.000000000E+00 4.955913086E+02 -1.032949209E+00
 2.500000037E-02 0.000000000E+00 4.906891174E+02 -9.886655211E-01
 2.525000088E-02 0.000000000E+00 4.861055298E+02 -9.517743587E-01
 2.549999952E-02 0.000000000E+00 4.818171997E+02 -8.881552815E-01
 2.575000003E-02 0.000000000E+00 4.772569275E+02 -7.275097370E-01
 2.600000054E-02 0.000000000E+00 4.723737793E+02 -6.992254257E-01
 2.624999918E-02 0.000000000E+00 4.676393127E+02 -9.645645618E-01
 2.649999969E-02 0.000000000E+00 4.626820374E+02 -1.340767622E+00
 2.675000019E-02 0.000000000E+00 4.576084595E+02 -1.667088151E+00
 2.700000070E-02 0.000000000E+00 4.524607544E+02 -1.899118066E+00
 2.724999934E-02 0.000000000E+00 4.473485107E+02 -2.036065340E+00
 2.749999985E-02 0.000000000E+00 4.422552795E+02 -2.099330902E+00
 2.775000036E-02 0.000000000E+00 4.372981262E+02 -2.131333351E+00
 2.800000086E-02 0.000000000E+00 4.323922119E+02 -2.057796717E+00
 2.824999951E-02 0.000000000E+00 4.274106445E+02 -1.789037347E+00
 2.850000001E-02 0.000000000E+00 4.223754272E+02 -1.525579929E+00
 2.875000052E-02 0.000000000E+00 4.171722412E+02 -1.295208812E+00
 2.899999917E-02 0.000000000E+00 4.118052979E+02 -1.154682517E+00
 2.924999967E-02 0.000000000E+00 4.063061523E+02 -1.156158447E+00
 2.950000018E-02 0.000000000E+00 4.006606750E+02 -1.115136147E+00
 2.975000069E-02 0.000000000E+00 3.949702759E+02 -1.154074430E+00
 2.999999933E-02 0.000000000E+00 3.890902100E+02 -1.248963833E+00
 3.024999984E-02 0.000000000E+00 3.830486450E+02 -1.321933866E+00
 3.050000034E-02 0.000000000E+00 3.771858826E+02 -1.411665201E+00
 3.075000085E-02 0.000000000E+00 3.712330933E+02 -1.445369601E+00
 3.099999949E-02 0.000000000E+00 3.652392883E+02 -1.512386799E+00
 3.125000000E-02 0.000000000E+00 3.590259705E+02 -1.394829750E+00
 3.150000051E-02 0.000000000E+00 3.522787781E+02 -1.167015195E+00
 3.175000101E-02 0.000000000E+00 3.454124756E+02 -9.947676659E-01
 3.200000152E-02 0.000000000E+00 3.387486572E+02 -9.184591770E-01
 3.224999830E-02 0.000000000E+00 3.319674377E+02 -9.116902947E-01
 3.249999881E-02 0.000000000E+00 3.253544617E+02 -7.902252674E-01
 3.274999931E-02 0.000000000E+00 3.186819763E+02 -5.936564207E-01
 3.299999982E-02 0.000000000E+00 3.119035339E+02 -4.402298033E-01
 3.325000033E-02 0.000000000E+00 3.050762024E+02 -3.548037708E-01
 3.350000083E-02 0.000000000E+00 2.984313965E+02 1.247400865E-01
 3.375000134E-02 0.000000000E+00 2.915762329E+02 7.127773762E-01
 3.400000185E-02 0.000000000E+00 2.843255615E+02 9.844780564E-01
 3.424999863E-02 0.000000000E+00 2.769672852E+02 1.424109578E+00
 3.449999914E-02 0.000000000E+00 2.689278564E+02 1.946358681E+00
 3.474999964E-02 0.000000000E+00 2.602976379E+02 2.154124498E+00
 3.500000015E-02 0.000000000E+00 2.517238159E+02 2.294185638E+00
 3.525000066E-02 0.000000000E+00 2.423142700E+02 2.338157415E+00
 3.550000116E-02 0.000000000E+00 2.326359558E+02 2.441647053E+00
 3.575000167E-02 0.000000000E+00 2.231446838E+02 2.449141741E+00
 3.599999845E-02 0.000000000E+00 2.135733795E+02 2.422680378E+00
 3.624999896E-02 0.000000000E+00 2.037747650E+02 2.711226225E+00
 3.649999946E-02 0.000000000E+00 1.934647217E+02 3.247730494E+00
 3.674999997E-02 0.000000000E+00 1.828976593E+02 3.802527189E+00
 3.700000048E-02 0.000000000E+00 1.715181580E+02 3.762773514E+00
 3.725000098E-02 0.000000000E+00 1.598491516E+02 3.342893362E+00
 3.750000149E-02 0.000000000E+00 1.471730042E+02 3.472068787E+00
 3.774999827E-02 0.000000000E+00 1.346021729E+02 4.270535946E+00
 3.799999878E-02 0.000000000E+00 1.216388092E+02 5.370148182E+00
 3.824999928E-02 0.000000000E+00 1.073377991E+02 5.689620018E+00
 3.849999979E-02 0.000000000E+00 9.252799225E+01 4.067551613E+00
 3.875000030E-02 0.000000000E+00 7.721862793E+01 1.861979604E+00
 3.900000080E-02 0.000000000E+00 6.144644547E+01 4.942870140E-01
 3.925000131E-02 0.000000000E+00 4.524135590E+01 4.301018119E-01
 3.950000182E-02 0.000000000E+00 2.919946671E+01 1.302777171E+00
 3.974999860E-02 0.000000000E+00 1.360381413E+01 2.436861277E+00
 3.999999911E-02 0.000000000E+00 -1.280479550E+00 3.637404919E+00
 4.024999961E-02 0.000000000E+00 -1.524372959E+01 4.378670692E+00
 4.050000012E-02 0.000000000E+00 -2.847931862E+01 4.392680168E+00
 4.075000063E-02 0.000000000E+00 -4.119960785E+01 4.095664024E+00
 4.100000113E-02 0.000000000E+00 -5.330510330E+01 3.522920609E+00
 4.125000164E-02 0.000000000E+00 -6.456127930E+01 2.971312284E+00
 4.149999842E-02 0.000000000E+00 -7.470816803E+01 2.594590664E+00
 4.174999893E-02 0.000000000E+00 -8.390536499E+01 2.307934999E+00
 4.199999943E-02 0.000000000E+00 -9.252299500E+01 1.903608322E+00
 4.224999994E-02 0.000000000E+00 -1.006295013E+02 1.493859529E+00
 4.250000045E-02 0.000000000E+00 -1.078616180E+02 1.688199043E+00
 4.275000095E-02 0.000000000E+00 -1.142778931E+02 2.559191942E+00
 4.300000146E-02 0.000000000E+00 -1.201692581E+02 3.676640511E+00
 4.324999824E-02 0.000000000E+00 -1.253815079E+02 4.133275032E+00
 4.349999875E-02 0.000000000E+00 -1.296016235E+02 4.030217648E+00
 4.374999925E-02 0.000000000E+00 -1.326665802E+02 3.734985828E+00
 4.399999976E-02 0.000000000E+00 -1.344204407E+02 3.417739391E+00
 4.425000027E-02 0.000000000E+00 -1.351120605E+02 3.103513718E+00
 4.450000077E-02 0.000000000E+00 -1.351537781E+02 2.945876598E+00
 4.475000128E-02 0.000000000E+00 -1.345410461E+02 2.938177347E+00
 4.500000179E-02 0.000000000E+00 -1.333068848E+02 2.743777275E+00
 4.524999857E-02 0.000000000E+00 -1.316386566E+02 2.296336651E+00
 4.549999908E-02 0.000000000E+00 -1.295296936E+02 1.794797778E+00
 4.574999958E-02 0.000000000E+00 -1.271227493E+02 1.472123504E+00
 4.600000009E-02 0.000000000E+00 -1.246756516E+02 1.309926391E+00
 4.625000060E-02 0.000000000E+00 -1.219188995E+02 1.297376394E+00
 4.650000110E-02 0.000000000E+00 -1.194242249E+02 1.178583145E+00
 4.675000161E-02 0.000000000E+00 -1.172773209E+02 6.096738577E-01
 4.699999839E-02 0.000000000E+00 -1.151614380E+02 -1.037217677E-01
 4.724999890E-02 0.000000000E+00 -1.130279388E+02 -5.930207968E-01
 4.749999940E-02 0.000000000E+00 -1.102822037E+02 -1.085902452E+00
 4.774999991E-02 0.000000000E+00 -1.067616882E+02 -1.809628367E+00
 4.800000042E-02 0.000000000E+00 -1.028098907E+02 -2.641029119E+00
 4.825000092E-02 0.000000000E+00 -9.877317810E+01 -3.230089664E+00
 4.850000143E-02 0.000000000E+00 -9.495526123E+01 -3.467128277E+00
 4.874999821E-02 0.000000000E+00 -9.163018036E+01 -3.796535015E+00
 4.899999872E-02 0.000000000E+00 -8.880496216E+01 -4.202724934E+00
 4.924999923E-02 0.000000000E+00 -8.612868500E+01 -3.902512074E+00
 4.949999973E-02 0.000000000E+00 -8.337142944E+01 -3.300814629E+00
 4.975000024E-02 0.000000000E+00 -8.025211334E+01 -2.995721340E+00
 5.000000075E-02 0.000000000E+00 -7.639241028E+01 -2.647204399E+00
 5.025000125E-02 0.000000000E+00 -7.211779785E+01 -2.011294842E+00
 5.050000176E-02 0.000000000E+00 -6.770437622E+01 -1.209432006E+00
 5.074999854E-02 0.000000000E+00 -6.366479111E+01 -4.020711184E-01
 5.099999905E-02 0.000000000E+00 -6.017866898E+01 1.789094657E-01
 5.124999955E-02 0.000000000E+00 -5.662852097E+01 6.750979275E-02
 5.150000006E-02 0.000000000E+00 -5.286397171E+01 -5.659144521E-01
 5.175000057E-02 0.000000000E+00 -4.882683945E+01 -1.243558288E+00
 5.200000107E-02 0.000000000E+00 -4.459552765E+01 -2.027170420E+00
 5.225000158E-02 0.000000000E+00 -4.028480148E+01 -2.633241653E+00
 5.249999836E-02 0.000000000E+00 -3.606624985E+01 -2.643747330E+00
 5.274999887E-02 0.000000000E+00 -3.214552307E+01 -1.999447703E+00
 5.299999937E-02 0.000000000E+00 -2.876319122E+01 -1.162130713E+00
 5.324999988E-02 0.000000000E+00 -2.561827087E+01 -1.301899433E+00
 5.350000039E-02 0.000000000E+00 -2.230762100E+01 -2.332827091E+00
 5.375000089E-02 0.000000000E+00 -1.890124130E+01 -2.868502378E+00
 5.400000140E-02 0.000000000E+00 -1.487227917E+01 -2.199574232E+00
 5.424999818E-02 0.000000000E+00 -1.053204155E+01 -9.748336673E-01
 5.449999869E-02 0.000000000E+00 -6.427383423E+00 -1.944477409E-01
 5.474999920E-02 0.000000000E+00 -2.239992142E+00 -5.822167993E-01
 5.499999970E-02 0.000000000E+00 1.957453609E+00 -1.959920287E+00
 5.525000021E-02 0.000000000E+00 6.061469555E+00 -2.875958920E+00
 5.550000072E-02 0.000000000E+00 1.043189812E+01 -3.026518345E+00
 5.575000122E-02 0.000000000E+00 1.474814606E+01 -3.211787462E+00
 5.600000173E-02 0.000000000E+00 1.861701965E+01 -3.068829775E+00
 5.624999851E-02 0.000000000E+00 2.241345406E+01 -2.928199291E+00
 5.649999902E-02 0.000000000E+00 2.632227516E+01 -3.844301462E+00
 5.674999952E-02 0.000000000E+00 3.056136894E+01 -5.317864418E+00
 5.700000003E-02 0.000000000E+00 3.483592987E+01 -6.430957794E+00
 5.725000054E-02 0.000000000E+00 3.900488281E+01 -7.453197956E+00
 5.750000104E-02 0.000000000E+00 4.342361069E+01 -8.238858223E+00
 5.775000155E-02 0.000000000E+00 4.792630005E+01 -8.605363846E+00
 5.799999833E-02 0.000000000E+00 5.230517197E+01 -8.518199921E+00
 5.824999884E-02 0.000000000E+00 5.638047409E+01 -7.746388912E+00
 5.849999934E-02 0.000000000E+00 6.014765930E+01 -7.201883793E+00
 5.874999985E-02 0.000000000E+00 6.384027863E+01 -7.046196938E+00
 5.900000036E-02 0.000000000E+00 6.757767487E+01 -6.448414803E+00
 5.925000086E-02 0.000000000E+00 7.112212372E+01 -5.294238091E+00
 5.950000137E-02 0.000000000E+00 7.444677734E+01 -3.999908686E+00
 5.974999815E-02 0.000000000E+00 7.779793549E+01 -2.977076530E+00
 5.999999866E-02 0.000000000E+00 8.167364502E+01 -2.202494860E+00
 6.024999917E-02 0.000000000E+00 8.600006104E+01 -1.585816145E+00
 6.049999967E-02 0.000000000E+00 9.032422638E+01 -1.074088216E+00
 6.075000018E-02 0.000000000E+00 9.444915771E+01 -6.565725803E-01
 6.100000069E-02 0.000000000E+00 9.814895630E+01 -3.479947150E-01
 6.125000119E-02 0.000000000E+00 1.017117920E+02 9.922438860E-02
 6.150000170E-02 0.000000000E+00 1.053370132E+02 5.677155256E-01
 6.174999848E-02 0.000000000E+00 1.089414597E+02 7.485244870E-01
 6.199999899E-02 0.000000000E+00 1.126412811E+02 9.426944256E-01
 6.224999949E-02 0.000000000E+00 1.164618988E+02 1.272915483E+00
 6.250000000E-02 0.000000000E+00 1.203481445E+02 1.542640805E+00
 6.274999678E-02 0.000000000E+00 1.242305145E+02 1.730910420E+00
 6.300000101E-02 0.000000000E+00 1.279735794E+02 1.876775026E+00
 6.324999779E-02 0.000000000E+00 1.314720306E+02 1.945238233E+00
 6.350000203E-02 0.000000000E+00 1.347066345E+02 1.744360685E+00
 6.374999881E-02 0.000000000E+00 1.377957001E+02 1.378294706E+00
 6.400000304E-02 0.000000000E+00 1.409020844E+02 1.091111422E+00
 6.424999982E-02 0.000000000E+00 1.441020813E+02 9.693815708E-01
 6.449999660E-02 0.000000000E+00 1.473745422E+02 9.325771332E-01
 6.475000083E-02 0.000000000E+00 1.507082367E+02 8.352086544E-01
 6.499999762E-02 0.000000000E+00 1.542185974E+02 7.624670267E-01
 6.525000185E-02 0.000000000E+00 1.580399780E+02 7.367065549E-01
 6.549999863E-02 0.000000000E+00 1.620533447E+02 6.273097396E-01
 6.575000286E-02 0.000000000E+00 1.660217285E+02 5.275081396E-01
 6.599999964E-02 0.000000000E+00 1.698794861E+02 5.924543142E-01
 6.624999642E-02 0.000000000E+00 1.736354980E+02 7.877085805E-01
 6.650000066E-02 0.000000000E+00 1.772075500E+02 9.896045327E-01
 6.674999744E-02 0.000000000E+00 1.805911407E+02 1.199929595E+00
 6.700000167E-02 0.000000000E+00 1.839860840E+02 1.379575610E+00
 6.724999845E-02 0.000000000E+00 1.874291229E+02 1.322706223E+00
 6.750000268E-02 0.000000000E+00 1.908576508E+02 1.054611325E+00
 6.774999946E-02 0.000000000E+00 1.943241730E+02 7.557954192E-01
 6.800000370E-02 0.000000000E+00 1.978016052E+02 5.243334770E-01
 6.825000048E-02 0.000000000E+00 2.013250732E+02 4.312598407E-01
 6.849999726E-02 0.000000000E+00 2.049568329E+02 3.851113021E-01
 6.875000149E-02 0.000000000E+00 2.087151642E+02 3.214583099E-01
 6.899999827E-02 0.000000000E+00 2.125450439E+02 3.373729289E-01
 6.925000250E-02 0.000000000E+00 2.162536774E+02 4.771152139E-01
 6.949999928E-02 0.000000000E+00 2.197503815E+02 7.394348383E-01
 6.975000352E-02 0.000000000E+00 2.231856689E+02 1.049913883E+00
 7.000000030E-02 0.000000000E+00 2.267014160E+02 1.370678425E+00
 7.024999708E-02 0.000000000E+00 2.300534210E+02 1.681265116E+00
 7.050000131E-02 0.000000000E+00 2.333039093E+02 1.955734491E+00
 7.074999809E-02 0.000000000E+00 2.365850983E+02 2.117417812E+00
 7.100000232E-02 0.000000000E+00 2.398066254E+02 2.147263050E+00
 7.124999911E-02 0.000000000E+00 2.430832977E+02 2.167912245E+00
 7.150000334E-02 0.000000000E+00 2.463664856E+02 2.168521404E+00
 7.175000012E-02 0.000000000E+00 2.496466827E+02 2.135598660E+00
 7.199999690E-02 0.000000000E+00 2.529128265E+02 2.135285616E+00
 7.225000113E-02 0.000000000E+00 2.561489563E+02 2.184034824E+00
 7.249999791E-02 0.000000000E+00 2.594110107E+02 2.203389406E+00
 7.275000215E-02 0.000000000E+00 2.626526794E+02 2.136855125E+00
 7.299999893E-02 0.000000000E+00 2.658252563E+02 2.028028250E+00
 7.325000316E-02 0.000000000E+00 2.689768372E+02 1.938199043E+00
 7.349999994E-02 0.000000000E+00 2.721443176E+02 1.839433670E+00
 7.374999672E-02 0.000000000E+00 2.754265747E+02 1.698958397E+00
 7.400000095E-02 0.000000000E+00 2.788216858E+02 1.532725930E+00
 7.424999774E-02 0.000000000E+00 2.821577759E+02 1.395072341E+00
 7.450000197E-02 0.000000000E+00 2.854591675E+02 1.360791683E+00
 7.474999875E-02 0.000000000E+00 2.887431946E+02 1.366296649E+00
 7.500000298E-02 0.000000000E+00 2.919491272E+02 1.369804621E+00
 7.524999976E-02 0.000000000E+00 2.951155701E+02 1.476060152E+00
 7.549999654E-02 0.000000000E+00 2.981151123E+02 1.629504442E+00
 7.575000077E-02 0.000000000E+00 3.009072571E+02 1.703441739E+00
 7.599999756E-02 0.000000000E+00 3.037193604E+02 1.712792873E+00
 7.625000179E-02 0.000000000E+00 3.065993042E+02 1.698171258E+00
 7.649999857E-02 0.000000000E+00 3.094357300E+02 1.667681813E+00
 7.675000280E-02 0.000000000E+00 3.122095032E+02 1.684213161E+00
 7.699999958E-02 0.000000000E+00 3.149890137E+02 1.693408370E+00
 7.724999636E-02 0.000000000E+00 3.177417297E+02 1.668673635E+00
 7.750000060E-02 0.000000000E+00 3.204027710E+02 1.651752114E+00
 7.774999738E-02 0.000000000E+00 3.229738159E+02 1.588797450E+00
 7.800000161E-02 0.000000000E+00 3.254840088E+02 1.540011287E+00
 7.824999839E-02 0.000000000E+00 3.279881287E+02 1.412761331E+00
 7.850000262E-02 0.000000000E+00 3.305640869E+02 1.184361696E+00
 7.874999940E-02 0.000000000E+00 3.331436157E+02 9.252086878E-01
 7.900000364E-02 0.000000000E+00 3.357195129E+02 7.424450517E-01
 7.925000042E-02 0.000000000E+00 3.382571716E+02 5.642094612E-01
 7.949999720E-02 0.000000000E+00 3.406530457E+02 3.951443434E-01
 7.975000143E-02 0.000000000E+00 3.430828247E+02 2.054121941E-01
 7.999999821E-02 0.000000000E+00 3.455299072E+02 -3.202356398E-02
 0.000000000E+00 2.500000119E-04 4.580551147E+02 2.063438892E+00
 2.500000119E-04 2.500000119E-04 4.734988708E+02 4.007215977E+00
 5.000000237E-04 2.500000119E-04 4.985850220E+02 9.271809578E+00
 7.500000065E-04 2.500000119E-04 5.368194580E+02 1.953791809E+01
 1.000000047E-03 2.500000119E-04 5.845032959E+02 3.354732895E+01
 1.249999972E-03 2.500000119E-04 6.351879272E+02 4.783311462E+01
 1.500000013E-03 2.500000119E-04 6.787598877E+02 4.879170609E+01
 1.750000054E-03 2.500000119E-04 7.032974243E+02 2.767846298E+01
 2.000000095E-03 2.500000119E-04 6.958212891E+02 -1.229559708E+01
 2.249999903E-03 2.500000119E-04 6.557646484E+02 -5.267834473E+01
 2.499999944E-03 2.500000119E-04 5.933660889E+02 -5.499638748E+01
 2.749999985E-03 2.500000119E-04 5.336253052E+02 -3.595824814E+01
 3.000000026E-03 2.500000119E-04 4.936390991E+02 -1.620111465E+01
 3.250000067E-03 2.500000119E-04 4.750699158E+02 -4.954475403E+00
 3.500000108E-03 2.500000119E-04 4.730010986E+02 -6.878115535E-01
 3.749999916E-03 2.500000119E-04 4.848442383E+02 3.149501324E+00
 4.000000190E-03 2.500000119E-04 5.110337524E+02 8.755421638E+00
 4.250000231E-03 2.500000119E-04 5.445877075E+02 1.484403896E+01
 4.499999806E-03 2.500000119E-04 5.783140259E+02 1.876710510E+01
 4.749999847E-03 2.500000119E-04 6.080487671E+02 1.922997665E+01
 4.999999888E-03 2.500000119E-04 6.277908936E+02 1.609636688E+01
 5.249999929E-03 2.500000119E-04 6.360233765E+02 9.734416008E+00
 5.499999970E-03 2.500000119E-04 6.332932739E+02 9.224427342E-01
 5.750000011E-03 2.500000119E-04 6.199357300E+02 -8.989901543E+00
 6.000000052E-03 2.500000119E-04 5.959901733E+02 -1.657346725E+01
 6.250000093E-03 2.500000119E-04 5.634741821E+02 -1.874166298E+01
 6.500000134E-03 2.500000119E-04 5.312299194E+02 -1.560892010E+01
 6.750000175E-03 2.500000119E-04 5.111976013E+02 -9.660990715E+00
 7.000000216E-03 2.500000119E-04 5.065164795E+02 -3.257960320E+00
 7.249999791E-03 2.500000119E-04 5.130856934E+02 2.289132595E+00
 7.499999832E-03 2.500000119E-04 5.271318970E+02 6.530016422E+00
 7.749999873E-03 2.500000119E-04 5.456452026E+02 9.322996140E+00
 8.000000380E-03 2.500000119E-04 5.654671631E+02 1.055189800E+01
 8.249999955E-03 2.500000119E-04 5.833102417E+02 1.017395496E+01
 8.500000462E-03 2.500000119E-04 5.959306030E+02 8.193159103E+00
 8.750000037E-03 2.500000119E-04 6.014226074E+02 4.620956898E+00
 8.999999613E-03 2.500000119E-04 5.998433838E+02 -3.639463484E-01
 9.250000119E-03 2.500000119E-04 5.914125366E+02 -5.938764095E+00
 9.499999695E-03 2.500000119E-04 5.762743530E+02 -1.015754986E+01
 9.750000201E-03 2.500000119E-04 5.562211914E+02 -1.125888920E+01
 9.999999776E-03 2.500000119E-04 5.372926636E+02 -9.352051735E+00
 1.025000028E-02 2.500000119E-04 5.270657959E+02 -5.743510246E+00
 1.049999986E-02 2.500000119E-04 5.258675537E+02 -1.936098218E+00
 1.075000037E-02 2.500000119E-04 5.308126831E+02 1.611304283E+00
 1.099999994E-02 2.500000119E-04 5.403738403E+02 4.521301270E+00
 1.125000045E-02 2.500000119E-04 5.529255371E+02 6.295973301E+00
 1.150000002E-02 2.500000119E-04 5.659177856E+02 6.632445335E+00
 1.174999960E-02 2.500000119E-04 5.763408203E+02 5.614870071E+00
 1.200000010E-02 2.500000119E-04 5.821517944E+02 3.524873734E+00
 1.224999968E-02 2.500000119E-04 5.829407349E+02 5.595229268E-01
 1.250000019E-02 2.500000119E-04 5.789038086E+02 -2.860711575E+00
 1.274999976E-02 2.500000119E-04 5.704331665E+02 -5.732433319E+00
 1.300000027E-02 2.500000119E-04 5.588577881E+02 -6.987334251E+00
 1.324999984E-02 2.500000119E-04 5.473738403E+02 -6.392339706E+00
 1.350000035E-02 2.500000119E-04 5.396796265E+02 -4.581211567E+00
 1.374999993E-02 2.500000119E-04 5.372323608E+02 -2.185051680E+00
 1.400000043E-02 2.500000119E-04 5.393844604E+02 3.974038064E-01
 1.425000001E-02 2.500000119E-04 5.450186768E+02 2.653587341E+00
 1.449999958E-02 2.500000119E-04 5.528487549E+02 4.046564579E+00
 1.475000009E-02 2.500000119E-04 5.609662476E+02 4.307750225E+00
 1.499999966E-02 2.500000119E-04 5.672713013E+02 3.545365095E+00
 1.525000017E-02 2.500000119E-04 5.704809570E+02 2.022416592E+00
 1.549999975E-02 2.500000119E-04 5.702256470E+02 -7.707025390E-03
 1.575000025E-02 2.500000119E-04 5.666384888E+02 -2.089964628E+00
 1.600000076E-02 2.500000119E-04 5.604191284E+02 -3.560392618E+00
 1.624999940E-02 2.500000119E-04 5.530972900E+02 -3.961436272E+00
 1.649999991E-02 2.500000119E-04 5.468014526E+02 -3.320390701E+00
 1.675000042E-02 2.500000119E-04 5.432263794E+02 -1.965540171E+00
 1.700000092E-02 2.500000119E-04 5.429125366E+02 -2.603805065E-01
 1.724999957E-02 2.500000119E-04 5.454244995E+02 1.392673373E+00
 1.750000007E-02 2.500000119E-04 5.497629395E+02 2.590941429E+00
 1.775000058E-02 2.500000119E-04 5.545676880E+02 3.076936483E+00
 1.799999923E-02 2.500000119E-04 5.584157104E+02 2.824834824E+00
 1.824999973E-02 2.500000119E-04 5.602827759E+02 2.017362356E+00
 1.850000024E-02 2.500000119E-04 5.597162476E+02 9.176656604E-01
 1.875000075E-02 2.500000119E-04 5.568465576E+02 -1.591645926E-01
 1.899999939E-02 2.500000119E-04 5.523887939E+02 -8.661272526E-01
 1.924999990E-02 2.500000119E-04 5.475033569E+02 -9.875075817E-01
 1.950000040E-02 2.500000119E-04 5.434129639E+02 -5.196048021E-01
 1.975000091E-02 2.500000119E-04 5.409370117E+02 3.474645317E-01
 1.999999955E-02 2.500000119E-04 5.402672119E+02 1.319954872E+00
 2.025000006E-02 2.500000119E-04 5.409429321E+02 2.185486794E+00
 2.050000057E-02 2.500000119E-04 5.421674194E+02 2.783207655E+00
 2.074999921E-02 2.500000119E-04 5.430966797E+02 2.945423126E+00
 2.099999972E-02 2.500000119E-04 5.429100342E+02 2.698675156E+00
 2.125000022E-02 2.500000119E-04 5.412597046E+02 2.238073587E+00
 2.150000073E-02 2.500000119E-04 5.382474976E+02 1.738173127E+00
 2.174999937E-02 2.500000119E-04 5.342077026E+02 1.355832219E+00
 2.199999988E-02 2.500000119E-04 5.297869873E+02 1.227535963E+00
 2.225000039E-02 2.500000119E-04 5.255826416E+02 1.404024482E+00
 2.250000089E-02 2.500000119E-04 5.220067139E+02 1.817955375E+00
 2.274999954E-02 2.500000119E-04 5.191751099E+02 2.298667192E+00
 2.300000004E-02 2.500000119E-04 5.168467407E+02 2.705755472E+00
 2.325000055E-02 2.500000119E-04 5.146224365E+02 2.976644278E+00
 2.349999920E-02 2.500000119E-04 5.121038818E+02 3.048655987E+00
 2.374999970E-02 2.500000119E-04 5.088981628E+02 2.897543907E+00
 2.400000021E-02 2.500000119E-04 5.048294983E+02 2.686638355E+00
 2.425000072E-02 2.500000119E-04 5.000012817E+02 2.613716125E+00
 2.449999936E-02 2.500000119E-04 4.948377075E+02 2.664201975E+00
 2.474999987E-02 2.500000119E-04 4.897435303E+02 2.815433264E+00
 2.500000037E-02 2.500000119E-04 4.849026184E+02 3.058223724E+00
 2.525000088E-02 2.500000119E-04 4.805097351E+02 3.314409256E+00
 2.549999952E-02 2.500000119E-04 4.764041443E+02 3.549997568E+00
 2.575000003E-02 2.500000119E-04 4.722075500E+02 3.606720686E+00
 2.600000054E-02 2.500000119E-04 4.677383118E+02 3.405281305E+00
 2.624999918E-02 2.500000119E-04 4.630832520E+02 3.013155699E+00
 2.649999969E-02 2.500000119E-04 4.583026428E+02 2.496001244E+00
 2.675000019E-02 2.500000119E-04 4.533447266E+02 2.044570208E+00
 2.700000070E-02 2.500000119E-04 4.482649536E+02 1.768908262E+00
 2.724999934E-02 2.500000119E-04 4.431196594E+02 1.624534607E+00
 2.749999985E-02 2.500000119E-04 4.379126587E+02 1.590688229E+00
 2.775000036E-02 2.500000119E-04 4.327802734E+02 1.614365935E+00
 2.800000086E-02 2.500000119E-04 4.276800842E+02 1.711592555E+00
 2.824999951E-02 2.500000119E-04 4.225300293E+02 1.971304774E+00
 2.850000001E-02 2.500000119E-04 4.173466187E+02 2.233338356E+00
 2.875000052E-02 2.500000119E-04 4.120238647E+02 2.456590176E+00
 2.899999917E-02 2.500000119E-04 4.065802612E+02 2.596066236E+00
 2.924999967E-02 2.500000119E-04 4.009922791E+02 2.565497160E+00
 2.950000018E-02 2.500000119E-04 3.953022461E+02 2.496039629E+00
 2.975000069E-02 2.500000119E-04 3.895832825E+02 2.409811258E+00
 2.999999933E-02 2.500000119E-04 3.838355713E+02 2.279639959E+00
 3.024999984E-02 2.500000119E-04 3.780686646E+02 2.097318888E+00
 3.050000034E-02 2.500000119E-04 3.722120972E+02 1.834496021E+00
 3.075000085E-02 2.500000119E-04 3.660469055E+02 1.613611698E+00
 3.099999949E-02 2.500000119E-04 3.598480530E+02 1.509226322E+00
 3.125000000E-02 2.500000119E-04 3.535366516E+02 1.640353918E+00
 3.150000051E-02 2.500000119E-04 3.469399414E+02 1.925325632E+00
 3.175000101E-02 2.500000119E-04 3.402966309E+02 2.277504206E+00
 3.200000152E-02 2.500000119E-04 3.337774048E+02 2.636741400E+00
 3.224999830E-02 2.500000119E-04 3.270852661E+02 2.910210371E+00
 3.249999881E-02 2.500000119E-04 3.205443420E+02 3.147616863E+00
 3.274999931E-02 2.500000119E-04 3.140490417E+02 3.191900015E+00
 3.299999982E-02 2.500000119E-04 3.075712891E+02 3.119203568E+00
 3.325000033E-02 2.500000119E-04 3.009168701E+02 3.296483994E+00