TITLE     = "Plot3D DataSet"
VARIABLES = "x"
"y"
"u"
"v"
ZONE T="LES 0.5mm"
 I=161, J=46, K=1, ZONETYPE=Ordered
 DATAPACKING=POINT
 DT=(SINGLE SINGLE SINGLE SINGLE )
 0.000000000E+00 0.000000000E+00 4.535145264E+02 -5.482820421E-02
 5.000000237E-04 0.000000000E+00 4.965743713E+02 -2.229155302E-01
 1.000000047E-03 0.000000000E+00 5.843195190E+02 -5.709800869E-02
 1.500000013E-03 0.000000000E+00 6.614698486E+02 -5.441844091E-02
 2.000000095E-03 0.000000000E+00 6.428847046E+02 -1.117245574E-02
 2.499999944E-03 0.000000000E+00 5.515371094E+02 -1.383766532E-02
 3.000000026E-03 0.000000000E+00 4.987821655E+02 -6.847121716E-01
 3.500000108E-03 0.000000000E+00 5.026552124E+02 -1.001341820E+00
 4.000000190E-03 0.000000000E+00 5.456481934E+02 -1.185306072E+00
 4.499999806E-03 0.000000000E+00 5.772941895E+02 -1.005832314E+00
 4.999999888E-03 0.000000000E+00 5.800091553E+02 -1.148264766E+00
 5.499999970E-03 0.000000000E+00 5.613493652E+02 -1.242004633E+00
 6.000000052E-03 0.000000000E+00 5.409111328E+02 -8.624089360E-01
 6.500000134E-03 0.000000000E+00 5.335148315E+02 -7.478076816E-01
 7.000000216E-03 0.000000000E+00 5.382830200E+02 -1.281006813E+00
 7.499999832E-03 0.000000000E+00 5.460931396E+02 -1.557829738E+00
 8.000000380E-03 0.000000000E+00 5.494295044E+02 -1.150183201E+00
 8.500000462E-03 0.000000000E+00 5.466676636E+02 -1.034448385E+00
 8.999999613E-03 0.000000000E+00 5.411671753E+02 -1.831058741E+00
 9.499999695E-03 0.000000000E+00 5.377974243E+02 -2.439867973E+00
 9.999999776E-03 0.000000000E+00 5.382373047E+02 -2.456125021E+00
 1.049999986E-02 0.000000000E+00 5.403435669E+02 -2.172382832E+00
 1.099999994E-02 0.000000000E+00 5.408325806E+02 -2.095972061E+00
 1.150000002E-02 0.000000000E+00 5.391949463E+02 -2.163277388E+00
 1.200000010E-02 0.000000000E+00 5.361499634E+02 -2.288139343E+00
 1.250000019E-02 0.000000000E+00 5.342393799E+02 -2.178821325E+00
 1.300000027E-02 0.000000000E+00 5.336900024E+02 -2.244886875E+00
 1.350000035E-02 0.000000000E+00 5.332504883E+02 -2.599319935E+00
 1.400000043E-02 0.000000000E+00 5.319387817E+02 -3.039494038E+00
 1.449999958E-02 0.000000000E+00 5.285908203E+02 -3.185491562E+00
 1.499999966E-02 0.000000000E+00 5.249133301E+02 -3.324493408E+00
 1.549999975E-02 0.000000000E+00 5.224235840E+02 -3.651082516E+00
 1.600000076E-02 0.000000000E+00 5.202115479E+02 -3.816208363E+00
 1.649999991E-02 0.000000000E+00 5.168510132E+02 -4.089996338E+00
 1.700000092E-02 0.000000000E+00 5.128573608E+02 -4.095206738E+00
 1.750000007E-02 0.000000000E+00 5.092721558E+02 -3.833026886E+00
 1.799999923E-02 0.000000000E+00 5.059967651E+02 -3.720727205E+00
 1.850000024E-02 0.000000000E+00 5.020555115E+02 -3.583070278E+00
 1.899999939E-02 0.000000000E+00 4.976307068E+02 -3.679475546E+00
 1.950000040E-02 0.000000000E+00 4.929878235E+02 -3.756697893E+00
 1.999999955E-02 0.000000000E+00 4.882934265E+02 -3.444279432E+00
 2.050000057E-02 0.000000000E+00 4.835234070E+02 -3.388719797E+00
 2.099999972E-02 0.000000000E+00 4.783314819E+02 -3.405050039E+00
 2.150000073E-02 0.000000000E+00 4.728391113E+02 -3.399925709E+00
 2.199999988E-02 0.000000000E+00 4.669809875E+02 -3.486627579E+00
 2.250000089E-02 0.000000000E+00 4.606390381E+02 -3.616275549E+00
 2.300000004E-02 0.000000000E+00 4.539334106E+02 -3.765427113E+00
 2.349999920E-02 0.000000000E+00 4.468496704E+02 -3.902758837E+00
 2.400000021E-02 0.000000000E+00 4.394373474E+02 -3.952734470E+00
 2.449999936E-02 0.000000000E+00 4.317318420E+02 -3.903284311E+00
 2.500000037E-02 0.000000000E+00 4.237950439E+02 -3.745459080E+00
 2.549999952E-02 0.000000000E+00 4.156291504E+02 -3.495173216E+00
 2.600000054E-02 0.000000000E+00 4.073103333E+02 -3.309173107E+00
 2.649999969E-02 0.000000000E+00 3.988043213E+02 -3.269265175E+00
 2.700000070E-02 0.000000000E+00 3.902560120E+02 -3.364356756E+00
 2.749999985E-02 0.000000000E+00 3.817890015E+02 -3.633668423E+00
 2.800000086E-02 0.000000000E+00 3.725892334E+02 -3.902100325E+00
 2.850000001E-02 0.000000000E+00 3.633824158E+02 -4.071451664E+00
 2.899999917E-02 0.000000000E+00 3.543092957E+02 -4.221281052E+00
 2.950000018E-02 0.000000000E+00 3.453928223E+02 -4.189148426E+00
 2.999999933E-02 0.000000000E+00 3.364516907E+02 -4.057488918E+00
 3.050000034E-02 0.000000000E+00 3.274943848E+02 -3.989029646E+00
 3.099999949E-02 0.000000000E+00 3.187230530E+02 -3.787808657E+00
 3.150000051E-02 0.000000000E+00 3.100397644E+02 -3.289453745E+00
 3.200000152E-02 0.000000000E+00 3.013533630E+02 -2.680685043E+00
 3.249999881E-02 0.000000000E+00 2.927008362E+02 -2.049338818E+00
 3.299999982E-02 0.000000000E+00 2.841124268E+02 -1.598235130E+00
 3.350000083E-02 0.000000000E+00 2.755984192E+02 -1.522096276E+00
 3.400000185E-02 0.000000000E+00 2.669948120E+02 -1.572829485E+00
 3.449999914E-02 0.000000000E+00 2.586114197E+02 -1.474263787E+00
 3.500000015E-02 0.000000000E+00 2.506793060E+02 -9.672005177E-01
 3.550000116E-02 0.000000000E+00 2.428394470E+02 -4.227526188E-01
 3.599999845E-02 0.000000000E+00 2.351674194E+02 -6.590008736E-02
 3.649999946E-02 0.000000000E+00 2.273764801E+02 3.745402694E-01
 3.700000048E-02 0.000000000E+00 2.193660126E+02 9.217952490E-01
 3.750000149E-02 0.000000000E+00 2.110785522E+02 1.193944335E+00
 3.799999878E-02 0.000000000E+00 2.025335999E+02 1.145415783E+00
 3.849999979E-02 0.000000000E+00 1.939109650E+02 1.259411454E+00
 3.900000080E-02 0.000000000E+00 1.850544739E+02 1.790518284E+00
 3.950000182E-02 0.000000000E+00 1.757429504E+02 2.640526295E+00
 3.999999911E-02 0.000000000E+00 1.658566437E+02 3.268774271E+00
 4.050000012E-02 0.000000000E+00 1.548422089E+02 3.653960705E+00
 4.100000113E-02 0.000000000E+00 1.424897156E+02 3.382069826E+00
 4.149999842E-02 0.000000000E+00 1.290581665E+02 2.405675650E+00
 4.199999943E-02 0.000000000E+00 1.148758545E+02 1.763292432E+00
 4.250000045E-02 0.000000000E+00 1.002239990E+02 1.927150249E+00
 4.300000146E-02 0.000000000E+00 8.566973877E+01 2.516694784E+00
 4.349999875E-02 0.000000000E+00 7.165396881E+01 2.305740356E+00
 4.399999976E-02 0.000000000E+00 5.740176010E+01 1.793635368E+00
 4.450000077E-02 0.000000000E+00 4.209788132E+01 2.178465128E+00
 4.500000179E-02 0.000000000E+00 2.608141136E+01 3.376207113E+00
 4.549999908E-02 0.000000000E+00 1.011262512E+01 4.840989113E+00
 4.600000009E-02 0.000000000E+00 -5.075921059E+00 5.608960152E+00
 4.650000110E-02 0.000000000E+00 -1.902719307E+01 5.371441364E+00
 4.699999839E-02 0.000000000E+00 -3.160374641E+01 5.632823944E+00
 4.749999940E-02 0.000000000E+00 -4.299569702E+01 6.753899097E+00
 4.800000042E-02 0.000000000E+00 -5.345183182E+01 7.085625172E+00
 4.850000143E-02 0.000000000E+00 -6.249329376E+01 6.434020996E+00
 4.899999872E-02 0.000000000E+00 -6.952981567E+01 5.650660038E+00
 4.949999973E-02 0.000000000E+00 -7.487742615E+01 5.124269485E+00
 5.000000075E-02 0.000000000E+00 -7.819471741E+01 4.940746784E+00
 5.050000176E-02 0.000000000E+00 -7.958676910E+01 5.011346340E+00
 5.099999905E-02 0.000000000E+00 -7.977772522E+01 5.372467995E+00
 5.150000006E-02 0.000000000E+00 -7.906968689E+01 5.563131809E+00
 5.200000107E-02 0.000000000E+00 -7.801720428E+01 5.091955185E+00
 5.249999836E-02 0.000000000E+00 -7.641227722E+01 4.085533142E+00
 5.299999937E-02 0.000000000E+00 -7.387584686E+01 2.895509958E+00
 5.350000039E-02 0.000000000E+00 -7.041629791E+01 1.794734955E+00
 5.400000140E-02 0.000000000E+00 -6.637251282E+01 5.657337308E-01
 5.449999869E-02 0.000000000E+00 -6.203440475E+01 -8.159222603E-01
 5.499999970E-02 0.000000000E+00 -5.768363571E+01 -1.677279592E+00
 5.550000072E-02 0.000000000E+00 -5.382054901E+01 -1.245437503E+00
 5.600000173E-02 0.000000000E+00 -5.053652191E+01 4.078405499E-01
 5.649999902E-02 0.000000000E+00 -4.731895447E+01 2.171281815E+00
 5.700000003E-02 0.000000000E+00 -4.354920578E+01 3.330566168E+00
 5.750000104E-02 0.000000000E+00 -3.889683914E+01 4.266182423E+00
 5.799999833E-02 0.000000000E+00 -3.370489883E+01 5.246745110E+00
 5.849999934E-02 0.000000000E+00 -2.860998154E+01 5.678967476E+00
 5.900000036E-02 0.000000000E+00 -2.345076180E+01 4.760986805E+00
 5.950000137E-02 0.000000000E+00 -1.766309547E+01 2.839093447E+00
 5.999999866E-02 0.000000000E+00 -1.120634460E+01 1.261583924E+00
 6.049999967E-02 0.000000000E+00 -4.819324970E+00 4.373978972E-01
 6.100000069E-02 0.000000000E+00 1.289746881E+00 -1.578143239E-02
 6.150000170E-02 0.000000000E+00 7.242161274E+00 -2.384381443E-01
 6.199999899E-02 0.000000000E+00 1.270151234E+01 -3.093424719E-03
 6.250000000E-02 0.000000000E+00 1.824180603E+01 8.741303086E-01
 6.300000101E-02 0.000000000E+00 2.484005737E+01 1.667127132E+00
 6.350000203E-02 0.000000000E+00 3.177136612E+01 1.894493937E+00
 6.400000304E-02 0.000000000E+00 3.844735718E+01 1.624970555E+00
 6.449999660E-02 0.000000000E+00 4.544710159E+01 1.226755738E+00
 6.499999762E-02 0.000000000E+00 5.283385468E+01 1.305698395E+00
 6.549999863E-02 0.000000000E+00 6.053200150E+01 1.681255579E+00
 6.599999964E-02 0.000000000E+00 6.864295197E+01 2.182575941E+00
 6.650000066E-02 0.000000000E+00 7.677050781E+01 2.456241369E+00
 6.700000167E-02 0.000000000E+00 8.456809998E+01 2.485972166E+00
 6.750000268E-02 0.000000000E+00 9.220922089E+01 2.582624197E+00
 6.800000370E-02 0.000000000E+00 9.929376221E+01 3.393224716E+00
 6.849999726E-02 0.000000000E+00 1.059727020E+02 3.799034595E+00
 6.899999827E-02 0.000000000E+00 1.123703003E+02 3.216755390E+00
 6.949999928E-02 0.000000000E+00 1.187226791E+02 3.077486753E+00
 7.000000030E-02 0.000000000E+00 1.257166061E+02 2.827192783E+00
 7.050000131E-02 0.000000000E+00 1.328023071E+02 2.356320858E+00
 7.100000232E-02 0.000000000E+00 1.396313477E+02 1.833286166E+00
 7.150000334E-02 0.000000000E+00 1.463480072E+02 1.338334084E+00
 7.199999690E-02 0.000000000E+00 1.532237091E+02 1.017837286E+00
 7.249999791E-02 0.000000000E+00 1.602292938E+02 1.023233891E+00
 7.299999893E-02 0.000000000E+00 1.673835144E+02 1.056420207E+00
 7.349999994E-02 0.000000000E+00 1.745308990E+02 9.120438099E-01
 7.400000095E-02 0.000000000E+00 1.815091553E+02 8.215929866E-01
 7.450000197E-02 0.000000000E+00 1.884689789E+02 7.018569708E-01
 7.500000298E-02 0.000000000E+00 1.953152466E+02 7.200908661E-01
 7.549999654E-02 0.000000000E+00 2.021789856E+02 6.877036691E-01
 7.599999756E-02 0.000000000E+00 2.093376007E+02 5.606346130E-01
 7.649999857E-02 0.000000000E+00 2.166220703E+02 5.221547484E-01
 7.699999958E-02 0.000000000E+00 2.238115234E+02 3.408000767E-01
 7.750000060E-02 0.000000000E+00 2.309223480E+02 1.505956203E-01
 7.800000161E-02 0.000000000E+00 2.377925568E+02 -1.027268693E-01
 7.850000262E-02 0.000000000E+00 2.445495605E+02 -3.448584080E-01
 7.900000364E-02 0.000000000E+00 2.511333008E+02 -6.036581993E-01
 7.949999720E-02 0.000000000E+00 2.576640015E+02 -8.204208612E-01
 7.999999821E-02 0.000000000E+00 2.640816956E+02 -1.017840981E+00
 0.000000000E+00 5.000000237E-04 4.561506348E+02 4.265188694E+00
 5.000000237E-04 5.000000237E-04 5.135791626E+02 2.530733871E+01
 1.000000047E-03 5.000000237E-04 5.970883789E+02 5.950137329E+01
 1.500000013E-03 5.000000237E-04 6.333750000E+02 2.742290878E+01
 2.000000095E-03 5.000000237E-04 6.143974609E+02 -2.952526665E+01
 2.499999944E-03 5.000000237E-04 5.556989746E+02 -4.376805878E+01
 3.000000026E-03 5.000000237E-04 5.046659546E+02 -2.421578789E+01
 3.500000108E-03 5.000000237E-04 5.037860413E+02 -2.910398006E+00
 4.000000190E-03 5.000000237E-04 5.392788696E+02 1.446515179E+01
 4.499999806E-03 5.000000237E-04 5.666960449E+02 1.360670376E+01
 4.999999888E-03 5.000000237E-04 5.676544800E+02 3.866746902E+00
 5.499999970E-03 5.000000237E-04 5.505454712E+02 -5.046015263E+00
 6.000000052E-03 5.000000237E-04 5.321276245E+02 -7.065550327E+00
 6.500000134E-03 5.000000237E-04 5.264195557E+02 -3.185388327E+00
 7.000000216E-03 5.000000237E-04 5.311159058E+02 1.382829070E+00
 7.499999832E-03 5.000000237E-04 5.375115356E+02 2.766657591E+00
 8.000000380E-03 5.000000237E-04 5.386503296E+02 1.037870526E+00
 8.500000462E-03 5.000000237E-04 5.338237305E+02 -1.416333318E+00
 8.999999613E-03 5.000000237E-04 5.277251587E+02 -2.359372616E+00
 9.499999695E-03 5.000000237E-04 5.243095093E+02 -1.059926987E+00
 9.999999776E-03 5.000000237E-04 5.236175537E+02 7.795552015E-01
 1.049999986E-02 5.000000237E-04 5.233666992E+02 1.305669069E+00
 1.099999994E-02 5.000000237E-04 5.216842041E+02 5.864688158E-01
 1.150000002E-02 5.000000237E-04 5.182426147E+02 -2.145739049E-01
 1.200000010E-02 5.000000237E-04 5.138547974E+02 -2.452361137E-01
 1.250000019E-02 5.000000237E-04 5.100133667E+02 5.538112521E-01
 1.300000027E-02 5.000000237E-04 5.069875488E+02 1.126310229E+00
 1.350000035E-02 5.000000237E-04 5.039289551E+02 1.254044294E+00
 1.400000043E-02 5.000000237E-04 5.001439819E+02 7.678710818E-01
 1.449999958E-02 5.000000237E-04 4.950908508E+02 4.736863375E-01
 1.499999966E-02 5.000000237E-04 4.900310059E+02 9.935778975E-01
 1.549999975E-02 5.000000237E-04 4.854952393E+02 1.171938062E+00
 1.600000076E-02 5.000000237E-04 4.806712036E+02 9.656699896E-01
 1.649999991E-02 5.000000237E-04 4.750757446E+02 6.903250217E-01
 1.700000092E-02 5.000000237E-04 4.690815735E+02 7.047232389E-01
 1.750000007E-02 5.000000237E-04 4.635829773E+02 1.065981507E+00
 1.799999923E-02 5.000000237E-04 4.586465759E+02 1.291716933E+00
 1.850000024E-02 5.000000237E-04 4.537740784E+02 1.454190254E+00
 1.899999939E-02 5.000000237E-04 4.486679077E+02 1.490040541E+00
 1.950000040E-02 5.000000237E-04 4.431904602E+02 1.470490694E+00
 1.999999955E-02 5.000000237E-04 4.380690918E+02 1.745716691E+00
 2.050000057E-02 5.000000237E-04 4.332286377E+02 1.850547194E+00
 2.099999972E-02 5.000000237E-04 4.280655518E+02 1.861417890E+00
 2.150000073E-02 5.000000237E-04 4.226845398E+02 1.916182280E+00
 2.199999988E-02 5.000000237E-04 4.171186523E+02 1.923627377E+00
 2.250000089E-02 5.000000237E-04 4.112774048E+02 1.881131887E+00
 2.300000004E-02 5.000000237E-04 4.051056824E+02 1.878134012E+00
 2.349999920E-02 5.000000237E-04 3.985064087E+02 1.855458379E+00
 2.400000021E-02 5.000000237E-04 3.913812256E+02 1.915320873E+00
 2.449999936E-02 5.000000237E-04 3.841491394E+02 2.113093138E+00
 2.500000037E-02 5.000000237E-04 3.769973450E+02 2.257057428E+00
 2.549999952E-02 5.000000237E-04 3.700173645E+02 2.568223476E+00
 2.600000054E-02 5.000000237E-04 3.631257324E+02 2.999126673E+00
 2.649999969E-02 5.000000237E-04 3.560471497E+02 3.058014870E+00
 2.700000070E-02 5.000000237E-04 3.489119873E+02 2.865871906E+00
 2.749999985E-02 5.000000237E-04 3.418617249E+02 2.597248077E+00
 2.800000086E-02 5.000000237E-04 3.343590393E+02 2.112997532E+00
 2.850000001E-02 5.000000237E-04 3.266123962E+02 1.536371112E+00
 2.899999917E-02 5.000000237E-04 3.189359741E+02 9.458823800E-01
 2.950000018E-02 5.000000237E-04 3.113026428E+02 6.563507318E-01
 2.999999933E-02 5.000000237E-04 3.036026611E+02 6.487699747E-01
 3.050000034E-02 5.000000237E-04 2.959888306E+02 6.643113494E-01
 3.099999949E-02 5.000000237E-04 2.886949463E+02 8.920835257E-01
 3.150000051E-02 5.000000237E-04 2.816428223E+02 1.431572914E+00
 3.200000152E-02 5.000000237E-04 2.744957275E+02 1.986688256E+00
 3.249999881E-02 5.000000237E-04 2.669211426E+02 2.506385803E+00
 3.299999982E-02 5.000000237E-04 2.592327881E+02 2.769765377E+00
 3.350000083E-02 5.000000237E-04 2.516321869E+02 2.663160563E+00
 3.400000185E-02 5.000000237E-04 2.440724335E+02 2.482047796E+00
 3.449999914E-02 5.000000237E-04 2.369521942E+02 2.554693937E+00
 3.500000015E-02 5.000000237E-04 2.307640686E+02 3.054497480E+00
 3.550000116E-02 5.000000237E-04 2.251902771E+02 3.649397850E+00
 3.599999845E-02 5.000000237E-04 2.195841675E+02 4.234844208E+00
 3.649999946E-02 5.000000237E-04 2.133187256E+02 4.904322624E+00
 3.700000048E-02 5.000000237E-04 2.064716034E+02 5.946148872E+00
 3.750000149E-02 5.000000237E-04 1.993377838E+02 7.174551010E+00
 3.799999878E-02 5.000000237E-04 1.917317352E+02 7.802760124E+00
 3.849999979E-02 5.000000237E-04 1.837951660E+02 8.185656548E+00
 3.900000080E-02 5.000000237E-04 1.754556122E+02 8.893211365E+00
 3.950000182E-02 5.000000237E-04 1.666079407E+02 9.654231071E+00
 3.999999911E-02 5.000000237E-04 1.573233948E+02 1.020489693E+01
 4.050000012E-02 5.000000237E-04 1.470023346E+02 1.073214626E+01
 4.100000113E-02 5.000000237E-04 1.349370728E+02 1.056899452E+01
 4.149999842E-02 5.000000237E-04 1.215070953E+02 9.290489197E+00
 4.199999943E-02 5.000000237E-04 1.081249313E+02 8.159610748E+00
 4.250000045E-02 5.000000237E-04 9.492601013E+01 8.041577339E+00
 4.300000146E-02 5.000000237E-04 8.162159729E+01 8.574991226E+00
 4.349999875E-02 5.000000237E-04 6.778724670E+01 8.838031769E+00
 4.399999976E-02 5.000000237E-04 5.254256821E+01 9.184752464E+00
 4.450000077E-02 5.000000237E-04 3.601211929E+01 9.740959167E+00
 4.500000179E-02 5.000000237E-04 1.948472404E+01 1.084004211E+01
 4.549999908E-02 5.000000237E-04 3.633940220E+00 1.252493668E+01
 4.600000009E-02 5.000000237E-04 -1.082082462E+01 1.312532330E+01
 4.650000110E-02 5.000000237E-04 -2.347386169E+01 1.257640457E+01
 4.699999839E-02 5.000000237E-04 -3.509754562E+01 1.273888779E+01
 4.749999940E-02 5.000000237E-04 -4.539799118E+01 1.377388477E+01
 4.800000042E-02 5.000000237E-04 -5.429774475E+01 1.393820095E+01
 4.850000143E-02 5.000000237E-04 -6.211909485E+01 1.302706242E+01
 4.899999872E-02 5.000000237E-04 -6.837751007E+01 1.193096542E+01
 4.949999973E-02 5.000000237E-04 -7.339643097E+01 1.078931522E+01
 5.000000075E-02 5.000000237E-04 -7.685605621E+01 1.007997417E+01
 5.050000176E-02 5.000000237E-04 -7.847967529E+01 1.028950214E+01
 5.099999905E-02 5.000000237E-04 -7.886746979E+01 1.094569111E+01
 5.150000006E-02 5.000000237E-04 -7.822430420E+01 1.123541355E+01
 5.200000107E-02 5.000000237E-04 -7.712297821E+01 1.094365311E+01
 5.249999836E-02 5.000000237E-04 -7.572185516E+01 1.012522221E+01
 5.299999937E-02 5.000000237E-04 -7.361492157E+01 8.794137001E+00
 5.350000039E-02 5.000000237E-04 -7.053202820E+01 7.279667377E+00
 5.400000140E-02 5.000000237E-04 -6.678583527E+01 5.816162586E+00
 5.449999869E-02 5.000000237E-04 -6.272080994E+01 4.606283665E+00
 5.499999970E-02 5.000000237E-04 -5.866759872E+01 4.144212246E+00
 5.550000072E-02 5.000000237E-04 -5.496942520E+01 4.927299976E+00
 5.600000173E-02 5.000000237E-04 -5.160170746E+01 6.666904449E+00
 5.649999902E-02 5.000000237E-04 -4.828372192E+01 8.348909378E+00
 5.700000003E-02 5.000000237E-04 -4.433319092E+01 9.417260170E+00
 5.750000104E-02 5.000000237E-04 -3.945516968E+01 1.027930260E+01
 5.799999833E-02 5.000000237E-04 -3.397676468E+01 1.117002010E+01
 5.849999934E-02 5.000000237E-04 -2.853192711E+01 1.153407764E+01
 5.900000036E-02 5.000000237E-04 -2.313068962E+01 1.079719162E+01
 5.950000137E-02 5.000000237E-04 -1.710076332E+01 9.308926582E+00
 5.999999866E-02 5.000000237E-04 -1.051803303E+01 8.252859116E+00
 6.049999967E-02 5.000000237E-04 -4.182108402E+00 7.808491230E+00
 6.100000069E-02 5.000000237E-04 1.976927757E+00 7.333600044E+00
 6.150000170E-02 5.000000237E-04 8.040459633E+00 6.953315735E+00
 6.199999899E-02 5.000000237E-04 1.354144955E+01 7.264753819E+00
 6.250000000E-02 5.000000237E-04 1.912055397E+01 8.393908501E+00
 6.300000101E-02 5.000000237E-04 2.557445908E+01 9.405125618E+00
 6.350000203E-02 5.000000237E-04 3.276888657E+01 9.459733009E+00
 6.400000304E-02 5.000000237E-04 3.991889954E+01 8.922849655E+00
 6.449999660E-02 5.000000237E-04 4.680640411E+01 8.504300117E+00
 6.499999762E-02 5.000000237E-04 5.389967728E+01 8.455495834E+00
 6.549999863E-02 5.000000237E-04 6.126947784E+01 8.601964951E+00
 6.599999964E-02 5.000000237E-04 6.881921387E+01 9.205704689E+00
 6.650000066E-02 5.000000237E-04 7.640710449E+01 1.008349609E+01
 6.700000167E-02 5.000000237E-04 8.404826355E+01 1.086686611E+01
 6.750000268E-02 5.000000237E-04 9.174502563E+01 1.153593063E+01
 6.800000370E-02 5.000000237E-04 9.912778473E+01 1.219539738E+01
 6.849999726E-02 5.000000237E-04 1.060890808E+02 1.234730816E+01
 6.899999827E-02 5.000000237E-04 1.125794525E+02 1.182716942E+01
 6.949999928E-02 5.000000237E-04 1.191768112E+02 1.123172855E+01
 7.000000030E-02 5.000000237E-04 1.261748962E+02 1.041308880E+01
 7.050000131E-02 5.000000237E-04 1.331409760E+02 9.675205231E+00
 7.100000232E-02 5.000000237E-04 1.400606842E+02 9.105607033E+00
 7.150000334E-02 5.000000237E-04 1.467597961E+02 8.641278267E+00
 7.199999690E-02 5.000000237E-04 1.533234558E+02 8.300539970E+00
 7.249999791E-02 5.000000237E-04 1.599103241E+02 8.167864799E+00
 7.299999893E-02 5.000000237E-04 1.667194824E+02 8.134614944E+00
 7.349999994E-02 5.000000237E-04 1.737086639E+02 7.986678600E+00
 7.400000095E-02 5.000000237E-04 1.806954956E+02 7.859688282E+00
 7.450000197E-02 5.000000237E-04 1.876718140E+02 7.700379848E+00
 7.500000298E-02 5.000000237E-04 1.945876007E+02 7.583058834E+00
 7.549999654E-02 5.000000237E-04 2.013282928E+02 7.450480461E+00
 7.599999756E-02 5.000000237E-04 2.084848633E+02 7.143908024E+00
 7.649999857E-02 5.000000237E-04 2.159091949E+02 6.872751236E+00
 7.699999958E-02 5.000000237E-04 2.231328583E+02 6.567673206E+00
 7.750000060E-02 5.000000237E-04 2.302496643E+02 6.279810429E+00
 7.800000161E-02 5.000000237E-04 2.371723175E+02 5.889371872E+00
 7.850000262E-02 5.000000237E-04 2.439279175E+02 5.476214409E+00
 7.900000364E-02 5.000000237E-04 2.505536499E+02 5.062844753E+00
 7.949999720E-02 5.000000237E-04 2.571104736E+02 4.747634888E+00
 7.999999821E-02 5.000000237E-04 2.635865784E+02 4.498376846E+00
 0.000000000E+00 1.000000047E-03 4.707532043E+02 1.581828403E+01
 5.000000237E-04 1.000000047E-03 5.595426636E+02 7.875632477E+01
 1.000000047E-03 1.000000047E-03 5.706172485E+02 5.173023605E+01
 1.500000013E-03 1.000000047E-03 5.758361206E+02 7.395788193E+00
 2.000000095E-03 1.000000047E-03 5.603073730E+02 -3.222443390E+01
 2.499999944E-03 1.000000047E-03 5.185336304E+02 -4.893941498E+01
 3.000000026E-03 1.000000047E-03 4.187802124E+02 -3.308982468E+01
 3.500000108E-03 1.000000047E-03 4.183221741E+02 6.088385582E+00
 4.000000190E-03 1.000000047E-03 4.359702454E+02 2.625628662E+01
 4.499999806E-03 1.000000047E-03 4.594531860E+02 1.856400871E+01
 4.999999888E-03 1.000000047E-03 4.626037598E+02 2.002138853E+00
 5.499999970E-03 1.000000047E-03 4.491618652E+02 -7.837493896E+00
 6.000000052E-03 1.000000047E-03 4.327398376E+02 -6.339546204E+00
 6.500000134E-03 1.000000047E-03 4.263159790E+02 1.481034756E+00
 7.000000216E-03 1.000000047E-03 4.277637939E+02 7.292835236E+00
 7.499999832E-03 1.000000047E-03 4.309627075E+02 7.777527332E+00
 8.000000380E-03 1.000000047E-03 4.308661804E+02 4.924185753E+00
 8.500000462E-03 1.000000047E-03 4.269632263E+02 2.925382853E+00
 8.999999613E-03 1.000000047E-03 4.228005066E+02 3.684935808E+00
 9.499999695E-03 1.000000047E-03 4.206249084E+02 6.090301037E+00
 9.999999776E-03 1.000000047E-03 4.198124695E+02 7.922878742E+00
 1.049999986E-02 1.000000047E-03 4.188070679E+02 8.369627953E+00
 1.099999994E-02 1.000000047E-03 4.167744751E+02 7.927451134E+00
 1.150000002E-02 1.000000047E-03 4.134168701E+02 7.488400459E+00
 1.200000010E-02 1.000000047E-03 4.093144226E+02 7.645309448E+00
 1.250000019E-02 1.000000047E-03 4.051781006E+02 8.355530739E+00
 1.300000027E-02 1.000000047E-03 4.014499207E+02 8.781775475E+00
 1.350000035E-02 1.000000047E-03 3.975945129E+02 8.774391174E+00
 1.400000043E-02 1.000000047E-03 3.935543823E+02 8.424388885E+00
 1.449999958E-02 1.000000047E-03 3.886790161E+02 8.112569809E+00
 1.499999966E-02 1.000000047E-03 3.836353760E+02 8.214462280E+00
 1.549999975E-02 1.000000047E-03 3.790055237E+02 8.188163757E+00
 1.600000076E-02 1.000000047E-03 3.744217224E+02 7.846644878E+00
 1.649999991E-02 1.000000047E-03 3.693945618E+02 7.415149212E+00
 1.700000092E-02 1.000000047E-03 3.643260803E+02 7.232524395E+00
 1.750000007E-02 1.000000047E-03 3.597445679E+02 7.286788464E+00
 1.799999923E-02 1.000000047E-03 3.557101746E+02 7.305559635E+00
 1.850000024E-02 1.000000047E-03 3.519508667E+02 7.326889515E+00
 1.899999939E-02 1.000000047E-03 3.480944824E+02 7.574107170E+00
 1.950000040E-02 1.000000047E-03 3.441754456E+02 7.592875004E+00
 1.999999955E-02 1.000000047E-03 3.407594604E+02 7.569053173E+00
 2.050000057E-02 1.000000047E-03 3.377539978E+02 7.471037388E+00
 2.099999972E-02 1.000000047E-03 3.343663940E+02 7.141573906E+00
 2.150000073E-02 1.000000047E-03 3.307229919E+02 6.772370338E+00
 2.199999988E-02 1.000000047E-03 3.270764160E+02 6.325125694E+00
 2.250000089E-02 1.000000047E-03 3.231166382E+02 5.806517601E+00
 2.300000004E-02 1.000000047E-03 3.187797852E+02 5.399323940E+00
 2.349999920E-02 1.000000047E-03 3.140549927E+02 5.207009315E+00
 2.400000021E-02 1.000000047E-03 3.090328369E+02 5.186125755E+00
 2.449999936E-02 1.000000047E-03 3.038489685E+02 5.317265511E+00
 2.500000037E-02 1.000000047E-03 2.987987366E+02 5.398502350E+00
 2.549999952E-02 1.000000047E-03 2.940457764E+02 5.659000874E+00
 2.600000054E-02 1.000000047E-03 2.896719055E+02 6.085463524E+00
 2.649999969E-02 1.000000047E-03 2.852772827E+02 6.078793526E+00
 2.700000070E-02 1.000000047E-03 2.805673828E+02 5.793490887E+00
 2.749999985E-02 1.000000047E-03 2.760912476E+02 5.462516308E+00
 2.800000086E-02 1.000000047E-03 2.714809875E+02 4.957218170E+00
 2.850000001E-02 1.000000047E-03 2.667063293E+02 4.356642246E+00
 2.899999917E-02 1.000000047E-03 2.617143250E+02 3.803878069E+00
 2.950000018E-02 1.000000047E-03 2.563514709E+02 3.655215740E+00
 2.999999933E-02 1.000000047E-03 2.507203064E+02 3.831425905E+00
 3.050000034E-02 1.000000047E-03 2.449692688E+02 4.002711296E+00
 3.099999949E-02 1.000000047E-03 2.391529694E+02 4.363111973E+00
 3.150000051E-02 1.000000047E-03 2.333701324E+02 4.917008400E+00
 3.200000152E-02 1.000000047E-03 2.276302643E+02 5.503979206E+00
 3.249999881E-02 1.000000047E-03 2.217668762E+02 5.860405445E+00
 3.299999982E-02 1.000000047E-03 2.162859344E+02 5.655750275E+00
 3.350000083E-02 1.000000047E-03 2.109992523E+02 5.013446331E+00
 3.400000185E-02 1.000000047E-03 2.059888458E+02 4.461283684E+00
 3.449999914E-02 1.000000047E-03 2.015475616E+02 4.462512970E+00
 3.500000015E-02 1.000000047E-03 1.979223480E+02 4.937342167E+00
 3.550000116E-02 1.000000047E-03 1.949472351E+02 5.679830551E+00
 3.599999845E-02 1.000000047E-03 1.916493683E+02 6.537342548E+00
 3.649999946E-02 1.000000047E-03 1.876255951E+02 7.443665981E+00
 3.700000048E-02 1.000000047E-03 1.830287628E+02 9.002429008E+00
 3.750000149E-02 1.000000047E-03 1.780069275E+02 1.120442867E+01
 3.799999878E-02 1.000000047E-03 1.720491028E+02 1.274076462E+01
 3.849999979E-02 1.000000047E-03 1.650361633E+02 1.375675774E+01
 3.900000080E-02 1.000000047E-03 1.573123932E+02 1.470109177E+01
 3.950000182E-02 1.000000047E-03 1.491559601E+02 1.551463223E+01
 3.999999911E-02 1.000000047E-03 1.402698822E+02 1.622021103E+01
 4.050000012E-02 1.000000047E-03 1.303864899E+02 1.703664017E+01
 4.100000113E-02 1.000000047E-03 1.193102188E+02 1.742518616E+01
 4.149999842E-02 1.000000047E-03 1.069876785E+02 1.619105530E+01
 4.199999943E-02 1.000000047E-03 9.447443390E+01 1.456747341E+01
 4.250000045E-02 1.000000047E-03 8.201185608E+01 1.408776951E+01
 4.300000146E-02 1.000000047E-03 6.937786102E+01 1.446222973E+01
 4.349999875E-02 1.000000047E-03 5.595995712E+01 1.524889946E+01
 4.399999976E-02 1.000000047E-03 4.102752304E+01 1.646106339E+01
 4.450000077E-02 1.000000047E-03 2.493466949E+01 1.746735573E+01
 4.500000179E-02 1.000000047E-03 8.641821861E+00 1.871621323E+01
 4.549999908E-02 1.000000047E-03 -6.351651669E+00 2.022198677E+01
 4.600000009E-02 1.000000047E-03 -1.927999306E+01 1.999097824E+01
 4.650000110E-02 1.000000047E-03 -3.045319176E+01 1.871250725E+01
 4.699999839E-02 1.000000047E-03 -4.057464981E+01 1.848960114E+01
 4.749999940E-02 1.000000047E-03 -4.925362015E+01 1.924321365E+01
 4.800000042E-02 1.000000047E-03 -5.622336578E+01 1.960251236E+01
 4.850000143E-02 1.000000047E-03 -6.206673431E+01 1.894420815E+01
 4.899999872E-02 1.000000047E-03 -6.708609772E+01 1.787922096E+01
 4.949999973E-02 1.000000047E-03 -7.185639954E+01 1.657251549E+01
 5.000000075E-02 1.000000047E-03 -7.590162659E+01 1.569036102E+01
 5.050000176E-02 1.000000047E-03 -7.846658325E+01 1.607868576E+01
 5.099999905E-02 1.000000047E-03 -7.945752716E+01 1.684247971E+01
 5.150000006E-02 1.000000047E-03 -7.901465607E+01 1.686856079E+01
 5.200000107E-02 1.000000047E-03 -7.780366516E+01 1.632567406E+01
 5.249999836E-02 1.000000047E-03 -7.622137451E+01 1.552560425E+01
 5.299999937E-02 1.000000047E-03 -7.419442749E+01 1.425854683E+01
 5.350000039E-02 1.000000047E-03 -7.130388641E+01 1.259481049E+01
 5.400000140E-02 1.000000047E-03 -6.764911652E+01 1.105714417E+01
 5.449999869E-02 1.000000047E-03 -6.369025803E+01 1.013009739E+01
 5.499999970E-02 1.000000047E-03 -5.976943207E+01 1.009992409E+01
 5.550000072E-02 1.000000047E-03 -5.591795731E+01 1.116486645E+01
 5.600000173E-02 1.000000047E-03 -5.191906738E+01 1.301369572E+01
 5.649999902E-02 1.000000047E-03 -4.787608337E+01 1.488426018E+01
 5.700000003E-02 1.000000047E-03 -4.356100845E+01 1.623039436E+01
 5.750000104E-02 1.000000047E-03 -3.869491959E+01 1.719231606E+01
 5.799999833E-02 1.000000047E-03 -3.319863129E+01 1.785343933E+01
 5.849999934E-02 1.000000047E-03 -2.744312859E+01 1.785316658E+01
 5.900000036E-02 1.000000047E-03 -2.171163368E+01 1.697755432E+01
 5.950000137E-02 1.000000047E-03 -1.559414864E+01 1.570420551E+01
 5.999999866E-02 1.000000047E-03 -9.136292458E+00 1.506330585E+01
 6.049999967E-02 1.000000047E-03 -3.008925438E+00 1.495337677E+01
 6.100000069E-02 1.000000047E-03 2.757535934E+00 1.470680332E+01
 6.150000170E-02 1.000000047E-03 8.601599693E+00 1.465303421E+01
 6.199999899E-02 1.000000047E-03 1.433936787E+01 1.521704292E+01
 6.250000000E-02 1.000000047E-03 1.999893188E+01 1.631475258E+01
 6.300000101E-02 1.000000047E-03 2.616692543E+01 1.725646210E+01
 6.350000203E-02 1.000000047E-03 3.325432968E+01 1.716336250E+01
 6.400000304E-02 1.000000047E-03 4.053682709E+01 1.658971214E+01
 6.449999660E-02 1.000000047E-03 4.724259186E+01 1.622550392E+01
 6.499999762E-02 1.000000047E-03 5.394292068E+01 1.603314972E+01
 6.549999863E-02 1.000000047E-03 6.086021805E+01 1.601917458E+01
 6.599999964E-02 1.000000047E-03 6.788121033E+01 1.641020203E+01
 6.650000066E-02 1.000000047E-03 7.522824097E+01 1.704484749E+01